       N       E                     dE             d eps       ncg     rms          rms(c)
NONE   1    -0.328444234080E+04   -0.32844E+04    0.00000E+00     0   0.000E+00    0.234E-12
NONE   2    -0.328444234080E+04    0.28085E-08    0.00000E+00     0   0.000E+00    0.226E-12
NONE   3    -0.328444234080E+04   -0.96043E-09    0.00000E+00     0   0.000E+00    0.220E-12
NONE   4    -0.328444234079E+04    0.27067E-08    0.00000E+00     0   0.000E+00    0.215E-12
NONE   5    -0.328444234080E+04   -0.14697E-08    0.00000E+00     0   0.000E+00    0.213E-12
NONE   6    -0.328444234079E+04    0.18772E-08    0.00000E+00     0   0.000E+00
   1 F= -.32844423E+04 E0= -.32844423E+04  d E =-.595969E-52  mag=    -6.0000
