 vasp.5.4.4.18Apr17-6-g9f103f2a35 (build Jun 18 2018 15:28:22) complex          
  
 executed on     IFC15_impi5.0.3p date 2024.02.09  17:31:09
 running on   10 total cores
 distrk:  each k-point on   10 cores,    1 groups
 distr:  one band on NCORES_PER_BAND=   1 cores,   10 groups


--------------------------------------------------------------------------------------------------------


 INCAR:
 POTCAR:    PAW_PBE O 08Apr2002                   
 POTCAR:    PAW_PBE Co 02Aug2007                  

 ----------------------------------------------------------------------------- 
|                                                                             |
|           W    W    AA    RRRRR   N    N  II  N    N   GGGG   !!!           |
|           W    W   A  A   R    R  NN   N  II  NN   N  G    G  !!!           |
|           W    W  A    A  R    R  N N  N  II  N N  N  G       !!!           |
|           W WW W  AAAAAA  RRRRR   N  N N  II  N  N N  G  GGG   !            |
|           WW  WW  A    A  R   R   N   NN  II  N   NN  G    G                |
|           W    W  A    A  R    R  N    N  II  N    N   GGGG   !!!           |
|                                                                             |
|      For optimal performance we recommend to set                            |
|        NCORE= 4 - approx SQRT( number of cores)                             |
|      NCORE specifies how many cores store one orbital (NPAR=cpu/NCORE).     |
|      This setting can  greatly improve the performance of VASP for DFT.     |
|      The default,   NCORE=1            might be grossly inefficient         |
|      on modern multi-core architectures or massively parallel machines.     |
|      Do your own testing !!!!                                               |
|      Unfortunately you need to use the default for GW and RPA calculations. |
|      (for HF NCORE is supported but not extensively tested yet)             |
|                                                                             |
 ----------------------------------------------------------------------------- 

 POTCAR:    PAW_PBE O 08Apr2002                   
   VRHFIN =O: s2p4                                                              
   LEXCH  = PE                                                                  
   EATOM  =   432.3788 eV,   31.7789 Ry                                         
                                                                                
   TITEL  = PAW_PBE O 08Apr2002                                                 
   LULTRA =        F    use ultrasoft PP ?                                      
   IUNSCR =        1    unscreen: 0-lin 1-nonlin 2-no                           
   RPACOR =    1.200    partial core radius                                     
   POMASS =   16.000; ZVAL   =    6.000    mass and valenz                      
   RCORE  =    1.520    outmost cutoff radius                                   
   RWIGS  =    1.550; RWIGS  =    0.820    wigner-seitz radius (au A)           
   ENMAX  =  400.000; ENMIN  =  300.000 eV                                      
   ICORE  =        2    local potential                                         
   LCOR   =        T    correct aug charges                                     
   LPAW   =        T    paw PP                                                  
   EAUG   =  605.392                                                            
   DEXC   =    0.000                                                            
   RMAX   =    1.553    core radius for proj-oper                               
   RAUG   =    1.300    factor for augmentation sphere                          
   RDEP   =    1.550    radius for radial grids                                 
   RDEPT  =    1.329    core radius for aug-charge                              
                                                                                
   Atomic configuration                                                         
    4 entries                                                                   
     n  l   j            E        occ.                                          
     1  0  0.50      -514.6923   2.0000                                         
     2  0  0.50       -23.9615   2.0000                                         
     2  1  0.50        -9.0305   4.0000                                         
     3  2  1.50        -9.5241   0.0000                                         
   Description                                                                  
     l       E           TYP  RCUT    TYP  RCUT                                 
     0    -23.9615318     23  1.200                                             
     0     -9.5240782     23  1.200                                             
     1     -9.0304911     23  1.520                                             
     1      8.1634956     23  1.520                                             
     2     -9.5240782      7  1.500                                             
  local pseudopotential read in
  partial core-charges read in
  partial kinetic energy density read in
  kinetic energy density of atom read in
  atomic valenz-charges read in
  non local Contribution for L=           0  read in
    real space projection operators read in
  non local Contribution for L=           0  read in
    real space projection operators read in
  non local Contribution for L=           1  read in
    real space projection operators read in
  non local Contribution for L=           1  read in
    real space projection operators read in
    PAW grid and wavefunctions read in
 
   number of l-projection  operators is LMAX  =           4
   number of lm-projection operators is LMMAX =           8
 
 POTCAR:    PAW_PBE Co 02Aug2007                  
   VRHFIN =Co: d8 s1                                                            
   LEXCH  = PE                                                                  
   EATOM  =   813.3670 eV,   59.7808 Ry                                         
                                                                                
   TITEL  = PAW_PBE Co 02Aug2007                                                
   LULTRA =        F    use ultrasoft PP ?                                      
   IUNSCR =        1    unscreen: 0-lin 1-nonlin 2-no                           
   RPACOR =    2.000    partial core radius                                     
   POMASS =   58.933; ZVAL   =    9.000    mass and valenz                      
   RCORE  =    2.300    outmost cutoff radius                                   
   RWIGS  =    2.460; RWIGS  =    1.302    wigner-seitz radius (au A)           
   ENMAX  =  267.968; ENMIN  =  200.976 eV                                      
   RCLOC  =    1.203    cutoff for local pot                                    
   LCOR   =        T    correct aug charges                                     
   LPAW   =        T    paw PP                                                  
   EAUG   =  477.818                                                            
   DEXC   =    0.000                                                            
   RMAX   =    2.360    core radius for proj-oper                               
   RAUG   =    1.300    factor for augmentation sphere                          
   RDEP   =    2.393    radius for radial grids                                 
   RDEPT  =    1.864    core radius for aug-charge                              
                                                                                
   Atomic configuration                                                         
    9 entries                                                                   
     n  l   j            E        occ.                                          
     1  0  0.50     -7587.6674   2.0000                                         
     2  0  0.50      -893.6084   2.0000                                         
     2  1  1.50      -764.5805   6.0000                                         
     3  0  0.50       -97.5973   2.0000                                         
     3  1  1.50       -60.9648   6.0000                                         
     3  2  2.50        -4.2382   8.0000                                         
     4  0  0.50        -4.3746   1.0000                                         
     4  1  1.50        -4.0817   0.0000                                         
     4  3  2.50        -1.3606   0.0000                                         
   Description                                                                  
     l       E           TYP  RCUT    TYP  RCUT                                 
     2     -4.2382362     23  2.300                                             
     2     -5.5988188     23  2.300                                             
     0     -4.3745797     23  2.300                                             
     0      5.7660125     23  2.300                                             
     1     -2.7211652     23  2.300                                             
     1     16.9860234     23  2.300                                             
  local pseudopotential read in
  partial core-charges read in
  partial kinetic energy density read in
  atomic valenz-charges read in
  non local Contribution for L=           2  read in
    real space projection operators read in
  non local Contribution for L=           2  read in
    real space projection operators read in
  non local Contribution for L=           0  read in
    real space projection operators read in
  non local Contribution for L=           0  read in
    real space projection operators read in
  non local Contribution for L=           1  read in
    real space projection operators read in
  non local Contribution for L=           1  read in
    real space projection operators read in
    PAW grid and wavefunctions read in
 
   number of l-projection  operators is LMAX  =           6
   number of lm-projection operators is LMMAX =          18
 
 Optimization of the real space projectors (new method)

 maximal supplied QI-value         = 24.76
 optimisation between [QCUT,QGAM] = [ 11.39, 22.77] = [ 36.31,145.25] Ry 
 Optimized for a Real-space Cutoff    1.10 Angstroem

   l    n(q)    QCUT    max X(q) W(low)/X(q) W(high)/X(q)  e(spline) 
   0      7    11.387    20.381    0.22E-03    0.48E-03    0.18E-06
   0      7    11.387    15.268    0.22E-03    0.52E-03    0.19E-06
   1      7    11.387     5.964    0.22E-03    0.73E-03    0.24E-06
   1      7    11.387     5.382    0.19E-03    0.60E-03    0.21E-06
 Optimization of the real space projectors (new method)

 maximal supplied QI-value         = 16.25
 optimisation between [QCUT,QGAM] = [ 11.38, 22.75] = [ 36.24,144.96] Ry 
 Optimized for a Real-space Cutoff    1.43 Angstroem

   l    n(q)    QCUT    max X(q) W(low)/X(q) W(high)/X(q)  e(spline) 
   2      9    11.376    65.824    0.18E-03    0.28E-04    0.14E-06
   2      9    11.376    61.429    0.18E-03    0.29E-04    0.14E-06
   0     10    11.376    56.174    0.51E-04    0.12E-03    0.20E-06
   0     10    11.376    31.263    0.46E-04    0.11E-03    0.18E-06
   1      9    11.376    19.828    0.23E-03    0.17E-03    0.10E-06
   1      9    11.376    15.139    0.20E-03    0.14E-03    0.89E-07
  PAW_PBE O 08Apr2002                   :
 energy of atom  1       EATOM= -432.3788
 kinetic energy error for atom=    0.0224 (will be added to EATOM!!)
  PAW_PBE Co 02Aug2007                  :
 energy of atom  2       EATOM= -813.3670
 kinetic energy error for atom=    0.0028 (will be added to EATOM!!)
 
 
 POSCAR: O66_Co48                                
  positions in direct lattice
  velocities in cartesian coordinates
 exchange correlation table for  LEXCH =        8
   RHO(1)=    0.500       N(1)  =     2000
   RHO(2)=  100.500       N(2)  =     4000

 VTST: version 3.2, (02/03/18)

 CHAIN: initializing optimizer
 
 OPT: Using VASP Dynamics algorithm
 CHAIN: Read ICHAIN            0
 
 POSCAR: O66_Co48                                
  positions in direct lattice
  velocities in cartesian coordinates
 


--------------------------------------------------------------------------------------------------------


 ion  position               nearest neighbor table
   1  0.382  0.138  0.541- 110 1.63
   2  0.136  0.380  0.541- 100 1.62
   3  0.388  0.387  0.101- 101 1.93 103 1.93  93 1.94  67 2.02
   4  0.390  0.390  0.362-  94 1.89 102 1.93 104 1.93  68 1.97
   5  0.390  0.890  0.232- 113 1.93 109 1.93  92 1.93  71 1.97
   6  0.396  0.897  0.486- 110 1.84 114 1.87  72 1.92
   7  0.890  0.390  0.232- 106 1.93  97 1.93  99 1.93  69 1.97
   8  0.897  0.396  0.486- 100 1.85  98 1.87  70 1.92
   9  0.884  0.891  0.101- 107 1.93  95 1.93 111 1.96  73 2.00
  10  0.890  0.890  0.362- 108 1.89  96 1.93 112 1.93  74 1.97
  11  0.610  0.110  0.232- 109 1.93 113 1.93  86 1.93  69 1.97
  12  0.609  0.102  0.485- 114 1.83 110 1.90  70 1.91
  13  0.611  0.609  0.101- 101 1.92 103 1.93  83 1.94  73 2.04
  14  0.610  0.610  0.362-  84 1.87 102 1.93 104 1.93  74 1.97
  15  0.114  0.126  0.101-  67 1.91  89 1.93  95 1.94 111 2.08
  16  0.110  0.110  0.362-  96 1.93 112 1.93  90 1.93  68 1.97
  17  0.110  0.890  0.159- 111 1.92 107 1.93  89 1.93  71 1.97
  18  0.110  0.891  0.419- 112 1.91 108 1.92  90 1.93  72 1.96
  19  0.109  0.393  0.031-  87 1.87 105 1.87  67 1.89
  20  0.110  0.390  0.289- 106 1.93  88 1.93  99 1.93  68 1.97
  21  0.891  0.602  0.030- 105 1.85  87 1.85  73 1.94
  22  0.890  0.610  0.289- 106 1.93  97 1.93  88 1.93  74 1.97
  23  0.390  0.610  0.159- 103 1.88  93 1.93  83 1.93  71 1.97
  24  0.389  0.610  0.419-  84 1.91  94 1.92 104 1.92  72 2.03
  25  0.387  0.134  0.032-  67 1.76  91 1.98  85 2.05
  26  0.390  0.110  0.289-  86 1.93 109 1.93  92 1.93  68 1.97
  27  0.146  0.628  0.099- 103 1.87  75 1.90  87 1.99 111 1.99
  28  0.140  0.640  0.354-  88 1.93 112 1.93 104 1.93  76 1.96
  29  0.140  0.140  0.224-  99 1.93 109 1.93  89 1.93  77 1.97
  30  0.146  0.145  0.483-  90 1.89 110 1.91 100 1.91
  31  0.860  0.860  0.224-  97 1.93 113 1.93 107 1.93  77 1.97
  32  0.852  0.852  0.482-  98 1.87 114 1.87 108 1.89
  33  0.856  0.360  0.096- 105 1.88 101 1.89  95 1.91  75 1.97
  34  0.860  0.360  0.354- 106 1.93  96 1.93 102 1.93  76 1.97
  35  0.363  0.854  0.099- 103 1.89  81 1.92 111 1.97  91 2.02
  36  0.360  0.860  0.354-  92 1.93 112 1.93 104 1.93  82 1.97
  37  0.360  0.360  0.224-  99 1.93 109 1.93  93 1.93  79 1.97
  38  0.363  0.363  0.482-  80 1.81  94 1.90 100 1.98 110 1.98
  39  0.645  0.362  0.035-  78 1.80 105 1.93 101 1.99  85 2.11
  40  0.640  0.360  0.297-  86 1.93 106 1.93 102 1.93  79 1.97
  41  0.640  0.860  0.167- 107 1.93 113 1.93  83 1.93  81 1.94
  42  0.639  0.855  0.423- 114 1.85  84 1.90 108 1.93  82 1.97
  43  0.131  0.848  0.038-  87 1.86 111 1.87  91 1.98
  44  0.140  0.860  0.297-  88 1.93  92 1.93 112 1.93  77 1.97
  45  0.360  0.140  0.167-  89 1.93 109 1.93  93 1.93  81 1.95
  46  0.361  0.141  0.427-  94 1.92  90 1.92  82 1.95 110 1.96
  47  0.864  0.150  0.038- 105 1.86  85 1.90  95 1.90
  48  0.860  0.140  0.297- 106 1.93  96 1.93  86 1.93  77 1.97
  49  0.643  0.140  0.098-  95 1.90 101 1.91  81 1.96  85 1.96
  50  0.640  0.140  0.354-  86 1.93  96 1.93 102 1.93  82 1.97
  51  0.640  0.640  0.224-  97 1.93 113 1.93  83 1.93  79 1.97
  52  0.636  0.635  0.485-  80 1.81  98 1.98 114 1.99  84 1.99
  53  0.140  0.360  0.167-  89 1.93  99 1.93  93 1.93  75 1.94
  54  0.141  0.360  0.427-  94 1.92  90 1.92  76 1.95 100 1.96
  55  0.356  0.633  0.036-  78 1.79  87 1.95 103 2.00  91 2.11
  56  0.360  0.640  0.297-  88 1.93  92 1.93 104 1.93  79 1.97
  57  0.860  0.640  0.167- 107 1.93  97 1.93  83 1.93  75 1.94
  58  0.855  0.639  0.423-  98 1.85  84 1.90 108 1.93  76 1.97
  59  0.110  0.610  0.232-  99 1.93  97 1.93  88 1.93  71 1.97
  60  0.103  0.608  0.485-  98 1.83 100 1.90  72 1.90
  61  0.611  0.889  0.027-  85 1.78  73 1.94  91 1.99
  62  0.610  0.890  0.289-  92 1.93 113 1.93  86 1.93  74 1.97
  63  0.610  0.390  0.159- 101 1.89  93 1.93  83 1.93  69 1.97
  64  0.610  0.389  0.419-  84 1.91  94 1.92 102 1.92  70 2.03
  65  0.890  0.110  0.159-  95 1.91  89 1.93 107 1.93  69 1.97
  66  0.891  0.109  0.419-  96 1.91 108 1.92  90 1.93  70 1.95
  67  0.246  0.247  0.062-  25 1.76  19 1.89  15 1.91   3 2.02
  68  0.250  0.250  0.326-   4 1.97  26 1.97  20 1.97  16 1.97
  69  0.750  0.250  0.195-  63 1.97  65 1.97  11 1.97   7 1.97
  70  0.756  0.246  0.456-  12 1.91   8 1.92  66 1.95  64 2.03
  71  0.250  0.750  0.195-  23 1.97  17 1.97   5 1.97  59 1.97
  72  0.246  0.755  0.456-  60 1.90   6 1.92  18 1.96  24 2.03
  73  0.752  0.751  0.062-  21 1.94  61 1.94   9 2.00  13 2.04  85 3.12
  74  0.750  0.750  0.326-  14 1.97  22 1.97  62 1.97  10 1.97
  75  0.999  0.498  0.132-  27 1.90  53 1.94  57 1.94  33 1.97
  76  0.003  0.497  0.390-  54 1.95  28 1.96  58 1.97  34 1.97
  77  0.000  0.000  0.260-  44 1.97  31 1.97  29 1.97  48 1.97
  78  0.505  0.503  0.011-  55 1.79  39 1.80 101 3.10 103 3.11
  79  0.500  0.500  0.260-  37 1.97  51 1.97  40 1.97  56 1.97
  80  0.500  0.495  0.512-  52 1.81  38 1.81
  81  0.500  0.999  0.132-  35 1.92  41 1.94  45 1.95  49 1.96
  82  0.497  0.003  0.390-  46 1.95  50 1.97  36 1.97  42 1.97
  83  0.625  0.625  0.163-  41 1.93  51 1.93  23 1.93  57 1.93  63 1.93  13 1.94 103 2.85 101 2.87
                           113 2.88  93 2.88 107 2.88  97 2.88
  84  0.623  0.623  0.421-  14 1.87  42 1.90  58 1.90  64 1.91  24 1.91  52 1.99 114 2.82  98 2.82
                           102 2.83 104 2.83  94 2.85 108 2.91
  85  0.637  0.103  0.036-  61 1.78  47 1.90  49 1.96  25 2.05  39 2.11  95 2.77  91 2.78 101 2.96
                           105 3.00  73 3.12
  86  0.625  0.125  0.293-  50 1.93  40 1.93  26 1.93  62 1.93  11 1.93  48 1.93  96 2.88 106 2.88
                           102 2.88  92 2.88 109 2.88 113 2.88
  87  0.117  0.621  0.036-  21 1.85  43 1.86  19 1.87  55 1.95  27 1.99 105 2.77 111 2.81 103 2.89
                            91 3.02
  88  0.125  0.625  0.293-  28 1.93  56 1.93  20 1.93  44 1.93  22 1.93  59 1.93 112 2.88  92 2.88
                           104 2.88 106 2.88  99 2.88  97 2.88
  89  0.125  0.125  0.163-  53 1.93  45 1.93  29 1.93  17 1.93  65 1.93  15 1.93  95 2.86  99 2.88
                           109 2.88  93 2.88 107 2.88 111 2.90
  90  0.126  0.126  0.423-  30 1.89  54 1.92  46 1.92  66 1.93  18 1.93  16 1.93  94 2.88 112 2.89
                            96 2.89 110 2.89 100 2.90 108 2.90
  91  0.369  0.891  0.035-  43 1.98  25 1.98  61 1.99  35 2.02  55 2.11  85 2.78 111 2.81 103 2.96
                            87 3.02
  92  0.375  0.875  0.293-  36 1.93  56 1.93  62 1.93  44 1.93  26 1.93   5 1.93 104 2.88 112 2.88
                            88 2.88  86 2.88 113 2.88 109 2.88
  93  0.375  0.375  0.163-  23 1.93  63 1.93  45 1.93  37 1.93  53 1.93   3 1.94 103 2.84 101 2.86
                            83 2.88  99 2.88 109 2.88  89 2.88
  94  0.375  0.375  0.422-   4 1.89  38 1.90  54 1.92  64 1.92  24 1.92  46 1.92  84 2.85 102 2.85
                           104 2.85  90 2.88 110 2.94 100 2.94
  95  0.876  0.127  0.098-  49 1.90  47 1.90  65 1.91  33 1.91   9 1.93  15 1.94  85 2.77 105 2.80
                            89 2.86 101 2.88 107 2.88 111 2.90
  96  0.875  0.125  0.358-  66 1.91  16 1.93  10 1.93  50 1.93  34 1.93  48 1.93 108 2.86 102 2.88
                           106 2.88  86 2.88 112 2.88  90 2.89
  97  0.875  0.625  0.228-  51 1.93  57 1.93   7 1.93  31 1.93  22 1.93  59 1.93  83 2.88 113 2.88
                           107 2.88  99 2.88 106 2.88  88 2.88
  98  0.879  0.624  0.482-  60 1.83  58 1.85   8 1.87  32 1.87  52 1.98 108 2.78  84 2.82 100 2.83
                           114 2.94
  99  0.125  0.375  0.228-  37 1.93  53 1.93  59 1.93  29 1.93  20 1.93   7 1.93  93 2.88 109 2.88
                            89 2.88  97 2.88  88 2.88 106 2.88
 100  0.122  0.377  0.489-   2 1.62   8 1.85  60 1.90  30 1.91  54 1.96  38 1.98  98 2.83  90 2.90
                           110 2.94  94 2.94
 101  0.624  0.374  0.099-  33 1.89  63 1.89  49 1.91  13 1.92   3 1.93  39 1.99 105 2.85  93 2.86
                            83 2.87 103 2.87  95 2.88  85 2.96  78 3.10
 102  0.625  0.375  0.358-  64 1.92  14 1.93  34 1.93   4 1.93  50 1.93  40 1.93  84 2.83  94 2.85
                           106 2.88  96 2.88 104 2.88  86 2.88
 103  0.375  0.623  0.099-  27 1.87  23 1.88  35 1.89  13 1.93   3 1.93  55 2.00  93 2.84  83 2.85
                           101 2.87  87 2.89 111 2.89  91 2.96  78 3.11
 104  0.375  0.625  0.358-  24 1.92  14 1.93   4 1.93  56 1.93  36 1.93  28 1.93  84 2.83  94 2.85
                            92 2.88 112 2.88 102 2.88  88 2.88
 105  0.881  0.377  0.037-  21 1.85  47 1.86  19 1.87  33 1.88  39 1.93  87 2.77  95 2.80 101 2.85
                            85 3.00
 106  0.875  0.375  0.293-  34 1.93  48 1.93  20 1.93  40 1.93   7 1.93  22 1.93 102 2.88  96 2.88
                            86 2.88  88 2.88  97 2.88  99 2.88
 107  0.875  0.875  0.163-  57 1.93  41 1.93  31 1.93  17 1.93  65 1.93   9 1.93 111 2.87  95 2.88
                            83 2.88  97 2.88 113 2.88  89 2.88
 108  0.875  0.875  0.422-  10 1.89  32 1.89  66 1.92  18 1.92  58 1.93  42 1.93  98 2.78 114 2.78
                           112 2.86  96 2.86  90 2.90  84 2.91
 109  0.375  0.125  0.228-  37 1.93  45 1.93  11 1.93  29 1.93  26 1.93   5 1.93  93 2.88  99 2.88
                            89 2.88 113 2.88  86 2.88  92 2.88
 110  0.377  0.122  0.489-   1 1.63   6 1.84  12 1.90  30 1.91  46 1.96  38 1.98 114 2.83  90 2.89
                            94 2.94 100 2.94
 111  0.123  0.872  0.098-  43 1.87  17 1.92   9 1.96  35 1.97  27 1.99  15 2.08  91 2.81  87 2.81
                           107 2.87 103 2.89  95 2.90  89 2.90
 112  0.125  0.875  0.358-  18 1.91  28 1.93  36 1.93  44 1.93  10 1.93  16 1.93 108 2.86 104 2.88
                            88 2.88  92 2.88  96 2.88  90 2.89
 113  0.625  0.875  0.228-  51 1.93  41 1.93   5 1.93  31 1.93  62 1.93  11 1.93  83 2.88  97 2.88
                           107 2.88 109 2.88  92 2.88  86 2.88
 114  0.624  0.878  0.482-  12 1.83  42 1.85   6 1.87  32 1.87  52 1.99 108 2.78  84 2.82 110 2.83
                            98 2.94
 

IMPORTANT INFORMATION: All symmetrisations will be switched off!
NOSYMM: (Re-)initialisation of all symmetry stuff for point group C_1.

 
 
 KPOINTS: Automatic mesh                          

Automatic generation of k-mesh.
Space group operators:
 irot       det(A)        alpha          n_x          n_y          n_z        tau_x        tau_y        tau_z
    1     1.000000     0.000000     1.000000     0.000000     0.000000     0.000000     0.000000     0.000000
 
 Subroutine IBZKPT returns following result:
 ===========================================
 
 Found      1 irreducible k-points:
 
 Following reciprocal coordinates:
            Coordinates               Weight
  0.000000  0.000000  0.000000      1.000000
 
 Following cartesian coordinates:
            Coordinates               Weight
  0.000000  0.000000  0.000000      1.000000
 
 
 Subroutine IBZKPT_HF returns following result:
 ==============================================
 
 Found      1 k-points in 1st BZ
 the following      1 k-points will be used (e.g. in the exchange kernel)
 Following reciprocal coordinates:   # in IRBZ
  0.000000  0.000000  0.000000    1.00000000   1 t-inv F


--------------------------------------------------------------------------------------------------------




 Dimension of arrays:
   k-points           NKPTS =      1   k-points in BZ     NKDIM =      1   number of bands    NBANDS=    780
   number of dos      NEDOS =   4000   number of ions     NIONS =    114
   non local maximal  LDIM  =      6   non local SUM 2l+1 LMDIM =     18
   total plane-waves  NPLWV = 864000
   max r-space proj   IRMAX =   5148   max aug-charges    IRDMAX=  16562
   dimension x,y,z NGX =    60 NGY =   60 NGZ =  240
   dimension x,y,z NGXF=   120 NGYF=  120 NGZF=  480
   support grid    NGXF=   120 NGYF=  120 NGZF=  480
   ions per type =              66  48
   NGX,Y,Z   is equivalent  to a cutoff of  12.23, 12.23, 12.74 a.u.
   NGXF,Y,Z  is equivalent  to a cutoff of  24.46, 24.46, 25.49 a.u.

 SYSTEM =  Co3O4                                   
 POSCAR =  O66_Co48                                

 Startparameter for this run:
   NWRITE =      2    write-flag & timer
   PREC   = acc       normal or accurate (medium, high low for compatibility)
   ISTART =      1    job   : 0-new  1-cont  2-samecut
   ICHARG =      0    charge: 1-file 2-atom 10-const
   ISPIN  =      2    spin polarized calculation?
   LNONCOLLINEAR =      F non collinear calculations
   LSORBIT =      F    spin-orbit coupling
   INIWAV =      1    electr: 0-lowe 1-rand  2-diag
   LASPH  =      F    aspherical Exc in radial PAW
   METAGGA=      F    non-selfconsistent MetaGGA calc.

 Electronic Relaxation 1
   ENCUT  =  500.0 eV  36.75 Ry    6.06 a.u.  14.87 14.87 57.09*2*pi/ulx,y,z
   ENINI  =  250.0     initial cutoff
   ENAUG  =  605.4 eV  augmentation charge cutoff
   NELM   =     60;   NELMIN=  6; NELMDL=  0     # of ELM steps 
   EDIFF  = 0.1E-04   stopping-criterion for ELM
   LREAL  =      T    real-space projection
   NLSPLINE    = F    spline interpolate recip. space projectors
   LCOMPAT=      F    compatible to vasp.4.4
   GGA_COMPAT  = T    GGA compatible to vasp.4.4-vasp.4.6
   LMAXPAW     = -100 max onsite density
   LMAXMIX     =    4 max onsite mixed and CHGCAR
   VOSKOWN=      0    Vosko Wilk Nusair interpolation
   ROPT   =   -0.00025  -0.00025
 Ionic relaxation
   EDIFFG = 0.1E-04   stopping-criterion for IOM
   NSW    =      0    number of steps for IOM
   NBLOCK =      1;   KBLOCK =      1    inner block; outer block 
   IBRION =     -1    ionic relax: 0-MD 1-quasi-New 2-CG
   NFREE  =      0    steps in history (QN), initial steepest desc. (CG)
   ISIF   =      2    stress and relaxation
   IWAVPR =     10    prediction:  0-non 1-charg 2-wave 3-comb
   ISYM   =     -1    0-nonsym 1-usesym 2-fastsym
   LCORR  =      T    Harris-Foulkes like correction to forces

   POTIM  = 0.1000    time-step for ionic-motion
   TEIN   =    0.0    initial temperature
   TEBEG  =    0.0;   TEEND  =   0.0 temperature during run
   SMASS  =  -3.00    Nose mass-parameter (am)
   estimated Nose-frequenzy (Omega)   =  0.10E-29 period in steps =****** mass=  -0.152E-26a.u.
   SCALEE = 1.0000    scale energy and forces
   NPACO  =    256;   APACO  = 16.0  distance and # of slots for P.C.
   PSTRESS=    0.0 pullay stress

  Mass of Ions in am
   POMASS =  16.00 58.93
  Ionic Valenz
   ZVAL   =   6.00  9.00
  Atomic Wigner-Seitz radii
   RWIGS  =  -1.00 -1.00
  virtual crystal weights 
   VCA    =   1.00  1.00
   NELECT =     828.0000    total number of electrons
   NUPDOWN=      -1.0000    fix difference up-down

 DOS related values:
   EMIN   =  10.00;   EMAX   =-10.00  energy-range for DOS
   EFERMI =   0.00
   ISMEAR =     0;   SIGMA  =   0.00  broadening in eV -4-tet -1-fermi 0-gaus

 Electronic relaxation 2 (details)
   IALGO  =      2    algorithm
   LDIAG  =      F    sub-space diagonalisation (order eigenvalues)
   LSUBROT=      F    optimize rotation matrix (better conditioning)
   TURBO    =      0    0=normal 1=particle mesh
   IRESTART =      0    0=no restart 2=restart with 2 vectors
   NREBOOT  =      0    no. of reboots
   NMIN     =      0    reboot dimension
   EREF     =   0.00    reference energy to select bands
   IMIX   =      1    mixing-type and parameters
     AMIX     =   0.02;   BMIX     =  0.00
     AMIX_MAG =   0.08;   BMIX_MAG =  0.00
     AMIN     =   0.02
     WC   =   100.;   INIMIX=   1;  MIXPRE=   1;  MAXMIX= -45

 Intra band minimization:
   WEIMIN = 0.0000     energy-eigenvalue tresh-hold
   EBREAK =  0.32E-09  absolut break condition
   DEPER  =   0.30     relativ break condition  

   TIME   =   0.20     timestep for ELM

  volume/ion in A,a.u.               =      18.27       123.26
  Fermi-wavevector in a.u.,A,eV,Ry     =   1.203856  2.274958 19.718512  1.449270
  Thomas-Fermi vector in A             =   2.339598
 
 Write flags
   LWAVE        =      T    write WAVECAR
   LDOWNSAMPLE  =      F    k-point downsampling of WAVECAR
   LCHARG       =      T    write CHGCAR
   LVTOT        =      F    write LOCPOT, total local potential
   LVHAR        =      F    write LOCPOT, Hartree potential only
   LELF         =      F    write electronic localiz. function (ELF)
   LORBIT       =     11    0 simple, 1 ext, 2 COOP (PROOUT), +10 PAW based schemes


 Dipole corrections
   LMONO  =      F    monopole corrections only (constant potential shift)
   LDIPOL =      F    correct potential (dipole corrections)
   IDIPOL =      0    1-x, 2-y, 3-z, 4-all directions 
   EPSILON=  1.0000000 bulk dielectric constant

 Exchange correlation treatment:
   GGA     =    --    GGA type
   LEXCH   =     8    internal setting for exchange type
   VOSKOWN=      0    Vosko Wilk Nusair interpolation
   EXXOEP  =     0    0=HF, 1=EXX-LHF (local Hartree Fock) 2=EXX OEP
   LHFCALC =     T    Hartree Fock is set to
   LSYMGRAD=     F    symmetrize gradient (conserves proper symmetry)
   PRECFOCK=normal    Normal, Fast or Accurate (Low or Medium for compatibility)
   LRHFCALC=     F    long range Hartree Fock
   LRSCOR  =     F    long range correlation only (use DFT for short range part)
   LTHOMAS =     F    Thomas Fermi screening in HF
   LMODELHF=     F    short range full HF, long range fraction AEXX
   ENCUT4O =  -1.0   cutoff for four orbital integrals eV
   LMAXFOCK=     4    L truncation for augmentation on plane wave grid
   LMAXFOCKAE=  -1    L truncation for all-electron charge restoration on plane wave grid
   NMAXFOCKAE=   1    number of basis functions for all-electron charge restoration
   LFOCKAEDFT=     F  apply the AE augmentation even for DFT
   NKREDX  =     1    reduce k-point grid by
   NKREDY  =     1    reduce k-point grid by
   NKREDZ  =     1    reduce k-point grid by
   SHIFTRED=     F    shift reduced grid of Gamma
   HFKIDENT=     F    idential grid for each k-point
   ODDONLY =     F    use only odd q-grid points
   EVENONLY=     F    use only even q-grid points
   HFALPHA =   -1.0000 decay constant for conv. correction
   MCALPHA =    0.0000 extent of test-charge in conv. correction in multipole expansion
   AEXX    =    0.2500 exact exchange contribution
   HFSCREEN=    0.2000 screening length (either q_TF or 0.3 A-1)
   HFSCREENC=   0.2000 screening length for correlation (either q_TF or 0.3 A-1)
   HFRCUT  =    0.0000 spherical cutoff for potential kernel
   ALDAX   =    0.7500 LDA exchange part
   AGGAX   =    0.7500 GGA exchange part
   ALDAC   =    1.0000 LDA correlation
   AGGAC   =    1.0000 GGA correlation
   ENCUTFOCK=  -1.0 apply spherical cutoff to Coloumb kernel
   NBANDSGWLOW=     1    first orbital included in HF term
   NBLOCK_FOCK=    64    blocking factor in FOCK_ACC
 Linear response parameters
   LEPSILON=     F    determine dielectric tensor
   LRPA    =     F    only Hartree local field effects (RPA)
   LNABLA  =     F    use nabla operator in PAW spheres
   LVEL    =     F    velocity operator in full k-point grid
   LINTERFAST=   F  fast interpolation
   KINTER  =     0    interpolate to denser k-point grid
   CSHIFT  =0.1000    complex shift for real part using Kramers Kronig
   OMEGAMAX=  -1.0    maximum frequency
   DEG_THRESHOLD= 0.2000000E-02 threshold for treating states as degnerate
   RTIME   =   -0.100 relaxation time in fs
  (WPLASMAI=    0.000 imaginary part of plasma frequency in eV, 0.658/RTIME)
   DFIELD  = 0.0000000 0.0000000 0.0000000 field for delta impulse in time
 
 Orbital magnetization related:
   ORBITALMAG=     F  switch on orbital magnetization
   LCHIMAG   =     F  perturbation theory with respect to B field
   DQ        =  0.001000  dq finite difference perturbation B field
   LLRAUG    =     F  two centre corrections for induced B field



--------------------------------------------------------------------------------------------------------


 Static calculation
 charge density and potential will be updated during run
 spin polarized calculation
 None: do nothing, only one-electron occupancies are recalculated
    band-by band algorithm
 perform Loewdin sub-space diagonalisation
    ordering is kept fixed
    before iterative eigenvector-optimisation
 Kerker-like  mixing scheme
 using additional bands          366
 real space projection scheme for non local part
 use partial core corrections
 calculate Harris-corrections to forces 
   (improved forces if not selfconsistent)
 use gradient corrections 
 use of overlap-Matrix (Vanderbilt PP)
 Gauss-broadening in eV      SIGMA  =   0.00


--------------------------------------------------------------------------------------------------------


  energy-cutoff  :      500.00
  volume of cell :     2082.24
      direct lattice vectors                 reciprocal lattice vectors
     8.155000000  0.000000000  0.000000000     0.122624157  0.000000000  0.000000000
     0.000000000  8.155000000  0.000000000     0.000000000  0.122624157  0.000000000
     0.000000000  0.000000000 31.310000000     0.000000000  0.000000000  0.031938678

  length of vectors
     8.155000000  8.155000000 31.310000000     0.122624157  0.122624157  0.031938678


 
 old parameters found on file WAVECAR:
  energy-cutoff  :      500.00
  volume of cell :     2082.24
      direct lattice vectors                 reciprocal lattice vectors
     8.155000000  0.000000000  0.000000000     0.122624157  0.000000000  0.000000000
     0.000000000  8.155000000  0.000000000     0.000000000  0.122624157  0.000000000
     0.000000000  0.000000000 31.310000000     0.000000000  0.000000000  0.031938678

  length of vectors

 
 k-points in units of 2pi/SCALE and weight: Automatic mesh                          
   0.00000000  0.00000000  0.00000000       1.000
 
 k-points in reciprocal lattice and weights: Automatic mesh                          
   0.00000000  0.00000000  0.00000000       1.000
 
 position of ions in fractional coordinates (direct lattice) 
   0.38244469  0.13776750  0.54055658
   0.13606651  0.38048233  0.54060282
   0.38803801  0.38688289  0.10090674
   0.38978786  0.38978786  0.36198403
   0.38978786  0.88978786  0.23175407
   0.39614590  0.89665908  0.48613923
   0.88978786  0.38978786  0.23175439
   0.89656037  0.39594301  0.48613994
   0.88374249  0.89120785  0.10145896
   0.88978786  0.88978909  0.36198403
   0.61021214  0.11021214  0.23175407
   0.60855060  0.10212604  0.48501357
   0.61102759  0.60888535  0.10113574
   0.61021214  0.61021214  0.36198371
   0.11352177  0.12570202  0.10125519
   0.11021091  0.11021214  0.36198403
   0.11021214  0.88978786  0.15893580
   0.10951173  0.89082811  0.41901546
   0.10920907  0.39263029  0.03146247
   0.11021091  0.38978786  0.28916576
   0.89146536  0.60203066  0.03049952
   0.88978786  0.61021214  0.28916576
   0.38978663  0.61021214  0.15893580
   0.38947975  0.60980854  0.41918523
   0.38744574  0.13375475  0.03205334
   0.38978786  0.11021214  0.28916576
   0.14551318  0.62827713  0.09912488
   0.13978663  0.63978786  0.35428074
   0.13978786  0.13978786  0.22405078
   0.14552910  0.14509617  0.48332267
   0.86021214  0.86021214  0.22405078
   0.85201226  0.85168625  0.48193794
   0.85567872  0.36037278  0.09632929
   0.86021214  0.36021214  0.35428074
   0.36312078  0.85413243  0.09889173
   0.36021214  0.86021337  0.35428074
   0.36021214  0.36021214  0.22405110
   0.36292977  0.36278002  0.48238390
   0.64548253  0.36168731  0.03533025
   0.63978786  0.36021214  0.29686905
   0.63978786  0.86021337  0.16663909
   0.63923173  0.85494042  0.42340785
   0.13081668  0.84818884  0.03847301
   0.13978786  0.86021214  0.29686905
   0.36021214  0.13978786  0.16663909
   0.36080066  0.14116620  0.42654476
   0.86403801  0.14981116  0.03789812
   0.86021214  0.13978909  0.29686937
   0.64290129  0.14042428  0.09790067
   0.63978786  0.13978786  0.35428074
   0.63978786  0.63978786  0.22405110
   0.63601486  0.63542011  0.48488786
   0.13978663  0.36021214  0.16663909
   0.14135590  0.36049485  0.42655240
   0.35630779  0.63329982  0.03554807
   0.36021214  0.63978786  0.29686905
   0.86021337  0.63978786  0.16663909
   0.85513800  0.63906732  0.42338308
   0.11021214  0.61021214  0.23175407
   0.10256263  0.60804755  0.48502847
   0.61064500  0.88862661  0.02721622
   0.61021214  0.88978786  0.28916576
   0.61021214  0.38978663  0.15893580
   0.60980939  0.38942056  0.41915933
   0.88978786  0.11021214  0.15893580
   0.89120507  0.10915984  0.41897229
   0.24600123  0.24709871  0.06235612
   0.25000000  0.25000000  0.32557490
   0.75000000  0.25000000  0.19534494
   0.75559669  0.24593918  0.45611100
   0.25000000  0.75000000  0.19534494
   0.24633499  0.75523361  0.45623733
   0.75175966  0.75145310  0.06187320
   0.75000000  0.75000000  0.32557490
   0.99881300  0.49812998  0.13210699
   0.00295421  0.49732072  0.39021512
   0.00000000  0.00000000  0.26045992
   0.50466462  0.50329368  0.01083615
   0.50000000  0.50000000  0.26045992
   0.50001223  0.49484761  0.51228358
   0.49969344  0.99860699  0.13191920
   0.49748762  0.00265539  0.39020505
   0.62499939  0.62500061  0.16278761
   0.62266547  0.62253529  0.42148579
   0.63651993  0.10274555  0.03597732
   0.62499939  0.12500061  0.29301757
   0.11695769  0.62072961  0.03601597
   0.12500061  0.62499939  0.29301757
   0.12500061  0.12500061  0.16278729
   0.12607575  0.12580612  0.42343161
   0.36916248  0.89139056  0.03524721
   0.37500061  0.87499939  0.29301757
   0.37500061  0.37500061  0.16278761
   0.37535000  0.37533091  0.42198888
   0.87578173  0.12708768  0.09831108
   0.87499939  0.12500061  0.35813255
   0.87499939  0.62499939  0.22790227
   0.87871550  0.62358239  0.48205707
   0.12500061  0.37500061  0.22790227
   0.12201782  0.37668959  0.48884623
   0.62402820  0.37428817  0.09868157
   0.62500061  0.37500061  0.35813255
   0.37536481  0.62315635  0.09905589
   0.37500061  0.62500061  0.35813255
   0.88133538  0.37688167  0.03691249
   0.87499939  0.37500061  0.29301757
   0.87499939  0.87499939  0.16278729
   0.87501879  0.87476817  0.42209602
   0.37500061  0.12500061  0.22790227
   0.37708786  0.12178056  0.48875460
   0.12276027  0.87158430  0.09773267
   0.12500061  0.87499939  0.35813255
   0.62499939  0.87499939  0.22790227
   0.62387571  0.87833024  0.48208337
 
 position of ions in cartesian coordinates  (Angst):
   3.11883647  1.12349397 16.92482662
   1.10962239  3.10283339 16.92627445
   3.16445000  3.15503000  3.15939000
   3.17872000  3.17872000 11.33372000
   3.17872000  7.25622000  7.25622000
   3.23056980  7.31225481 15.22101924
   7.25622000  3.17872000  7.25623000
   7.31144980  3.22891527 15.22104142
   7.20692000  7.26780000  3.17668000
   7.25622000  7.25623000 11.33372000
   4.97628000  0.89878000  7.25622000
   4.96273013  0.83283789 15.18577488
   4.98293000  4.96546000  3.16656000
   4.97628000  4.97628000 11.33371000
   0.92577000  1.02510000  3.17030000
   0.89877000  0.89878000 11.33372000
   0.89878000  7.25622000  4.97628000
   0.89306816  7.26470323 13.11937411
   0.89060000  3.20190000  0.98509000
   0.89877000  3.17872000  9.05378000
   7.26990000  4.90956000  0.95494000
   7.25622000  4.97628000  9.05378000
   3.17871000  4.97628000  4.97628000
   3.17620736  4.97298864 13.12468945
   3.15962000  1.09077000  1.00359000
   3.17872000  0.89878000  9.05378000
   1.18666000  5.12360000  3.10360000
   1.13996000  5.21747000 11.09253000
   1.13997000  1.13997000  7.01503000
   1.18678979  1.18325927 15.13283267
   7.01503000  7.01503000  7.01503000
   6.94815996  6.94550139 15.08947687
   6.97806000  2.93884000  3.01607000
   7.01503000  2.93753000 11.09253000
   2.96125000  6.96545000  3.09630000
   2.93753000  7.01504000 11.09253000
   2.93753000  2.93753000  7.01504000
   2.95969226  2.95847105 15.10343993
   5.26391000  2.94956000  1.10619000
   5.21747000  2.93753000  9.29497000
   5.21747000  7.01504000  5.21747000
   5.21293473  6.97203915 13.25689977
   1.06681000  6.91698000  1.20459000
   1.13997000  7.01503000  9.29497000
   2.93753000  1.13997000  5.21747000
   2.94232939  1.15121034 13.35511654
   7.04623000  1.22171000  1.18659000
   7.01503000  1.13998000  9.29498000
   5.24286000  1.14516000  3.06527000
   5.21747000  1.13997000 11.09253000
   5.21747000  5.21747000  7.01504000
   5.18670119  5.18185102 15.18183897
   1.13996000  2.93753000  5.21747000
   1.15275734  2.93983548 13.35535556
   2.90569000  5.16456000  1.11301000
   2.93753000  5.21747000  9.29497000
   7.01504000  5.21747000  5.21747000
   6.97365041  5.21159401 13.25612428
   0.89878000  4.97628000  7.25622000
   0.83639823  4.95862779 15.18624137
   4.97981000  7.24675000  0.85214000
   4.97628000  7.25622000  9.05378000
   4.97628000  3.17871000  4.97628000
   4.97299559  3.17572470 13.12387873
   7.25622000  0.89878000  4.97628000
   7.26777731  0.89019852 13.11802240
   2.00614000  2.01509000  1.95237000
   2.03875000  2.03875000 10.19375000
   6.11625000  2.03875000  6.11625000
   6.16189097  2.00563404 14.28083549
   2.03875000  6.11625000  6.11625000
   2.00886182  6.15893012 14.28479093
   6.13060000  6.12810000  1.93725000
   6.11625000  6.11625000 10.19375000
   8.14532000  4.06225000  4.13627000
   0.02409160  4.05565043 12.21763534
   0.00000000  0.00000000  8.15500000
   4.11554000  4.10436000  0.33928000
   4.07750000  4.07750000  8.15500000
   4.07759974  4.03548230 16.03959884
   4.07500000  8.14364000  4.13039000
   4.05701154  0.02165470 12.21732023
   5.09687000  5.09688000  5.09688000
   5.07783693  5.07677530 13.19672011
   5.19082000  0.83789000  1.12645000
   5.09687000  1.01938000  9.17438000
   0.95379000  5.06205000  1.12766000
   1.01938000  5.09687000  9.17438000
   1.01938000  1.01938000  5.09687000
   1.02814773  1.02594893 13.25764364
   3.01052000  7.26929000  1.10359000
   3.05813000  7.13562000  9.17438000
   3.05813000  3.05813000  5.09688000
   3.06097922  3.06082357 13.21247190
   7.14200000  1.03640000  3.07812000
   7.13562000  1.01938000 11.21313000
   7.13562000  5.09687000  7.13562000
   7.16592494  5.08531443 15.09320679
   1.01938000  3.05813000  7.13562000
   0.99505530  3.07190365 15.30577532
   5.08895000  3.05232000  3.08972000
   5.09688000  3.05813000 11.21313000
   3.06110000  5.08184000  3.10144000
   3.05813000  5.09688000 11.21313000
   7.18729000  3.07347000  1.15573000
   7.13562000  3.05813000  9.17438000
   7.13562000  7.13562000  5.09687000
   7.13577825  7.13373443 13.21582649
   3.05813000  1.01938000  7.13562000
   3.07515153  0.99312047 15.30290650
   1.00111000  7.10777000  3.06001000
   1.01938000  7.13562000 11.21313000
   5.09687000  7.13562000  7.13562000
   5.08770641  7.16278314 15.09403039
 


--------------------------------------------------------------------------------------------------------


 k-point  1 :   0.0000 0.0000 0.0000  plane waves:   52739

 maximum and minimum number of plane-waves per node :     52739    52739

 maximum number of plane-waves:     52739
 maximum index in each direction: 
   IXMAX=   14   IYMAX=   14   IZMAX=   57
   IXMIN=  -14   IYMIN=  -14   IZMIN=  -57


 serial   3D FFT for wavefunctions
 parallel 3D FFT for charge:
    minimum data exchange during FFTs selected (reduces bandwidth)


 FFT grid for exact exchange (Hartree Fock) 
  NGX = 48; NGY = 48; NGZ =180

 
 Radii for the augmentation spheres in the non-local exchange
 for species   1 augmentation radius   0.902 (default was   0.722)
       energy cutoff for augmentation   2000.0
 for species   2 augmentation radius   1.307 (default was   1.045)
       energy cutoff for augmentation   2000.0
 Maximum index for augmentation-charges in exchange         1871
  SETUP_FOCK is finished

 total amount of memory used by VASP MPI-rank0   404800. kBytes
=======================================================================

   base      :      30000. kBytes
   nonlr-proj:      84541. kBytes
   fftplans  :      26737. kBytes
   grid      :     124715. kBytes
   one-center:       3545. kBytes
   HF        :        129. kBytes
   wavefun   :     135133. kBytes
 
     INWAV:  cpu time   23.2692: real time   23.4891
 charge density for first step will be calculated from the start-wavefunctions


--------------------------------------------------------------------------------------------------------


 Maximum index for non-local projection operator         4972
 Maximum index for augmentation-charges         1673 (set IRDMAX)


--------------------------------------------------------------------------------------------------------


 initial charge from wavefunction
 First call to EWALD:  gamma=   0.139
 Maximum number of real-space cells 4x 4x 1
 Maximum number of reciprocal cells 2x 2x 6

    FEWALD:  cpu time    0.0193: real time    0.0193


--------------------------------------- Iteration      1(   1)  ---------------------------------------


    POTLOK:  cpu time   11.8783: real time   11.9029
    SETDIJ:  cpu time    0.8957: real time    0.8957
    EDDIAG:  cpu time    0.0001: real time    0.0001
       DOS:  cpu time    0.0191: real time    0.0191
    CHARGE:  cpu time    5.8696: real time    5.8707
    MIXING:  cpu time    0.0245: real time    0.0245
    --------------------------------------------
      LOOP:  cpu time   18.6873: real time   18.7130

 eigenvalue-minimisations  :     0
 total energy-change (2. order) :-0.3284442E+04  ( 0.0000000E+00)
 number of electron     828.0000020 magnetization      -5.9999997
 augmentation part      288.1295052 magnetization      -4.0525576

 Free energy of the ion-electron system (eV)
  ---------------------------------------------------
  alpha Z        PSCENC =      1506.12382579
  Ewald energy   TEWEN  =    498986.30201855
  -Hartree energ DENC   =   -565039.05643261
  -exchange      EXHF   =         0.00000000
  -V(xc)+E(xc)   XCENC  =      2009.14223104
  PAW double counting   =     81320.50190873   -83853.85090793
  entropy T*S    EENTRO =        -0.00000000
  eigenvalues    EBANDS =     -5325.78742850
  atomic energy  EATOM  =     67112.18244413
  Solvation  Ediel_sol  =         0.00000000
  ---------------------------------------------------
  free energy    TOTEN  =     -3284.44234080 eV

  energy without entropy =    -3284.44234080  energy(sigma->0) =    -3284.44234080
  exchange ACFDT corr.  =         0.00000000  see jH, gK, PRB 81, 115126


--------------------------------------------------------------------------------------------------------




--------------------------------------- Iteration      1(   2)  ---------------------------------------


    POTLOK:  cpu time   11.5407: real time   11.5512
    SETDIJ:  cpu time    0.9285: real time    0.9294
    EDDIAG:  cpu time    0.0001: real time    0.0001
       DOS:  cpu time    0.0056: real time    0.0056
    CHARGE:  cpu time    5.4063: real time    5.4086
    MIXING:  cpu time    0.0429: real time    0.0429
    --------------------------------------------
      LOOP:  cpu time   17.9241: real time   17.9378

 eigenvalue-minimisations  :     0
 total energy-change (2. order) : 0.2808520E-08  ( 0.0000000E+00)
 number of electron     828.0000020 magnetization      -5.9999997
 augmentation part      288.1295052 magnetization      -4.0525576

 Free energy of the ion-electron system (eV)
  ---------------------------------------------------
  alpha Z        PSCENC =      1506.12382579
  Ewald energy   TEWEN  =    498986.30201855
  -Hartree energ DENC   =   -565039.05643261
  -exchange      EXHF   =         0.00000000
  -V(xc)+E(xc)   XCENC  =      2009.14223104
  PAW double counting   =     81320.50190873   -83853.85090793
  entropy T*S    EENTRO =        -0.00000000
  eigenvalues    EBANDS =     -5325.78742850
  atomic energy  EATOM  =     67112.18244413
  Solvation  Ediel_sol  =         0.00000000
  ---------------------------------------------------
  free energy    TOTEN  =     -3284.44234080 eV

  energy without entropy =    -3284.44234080  energy(sigma->0) =    -3284.44234080
  exchange ACFDT corr.  =         0.00000000  see jH, gK, PRB 81, 115126


--------------------------------------------------------------------------------------------------------




--------------------------------------- Iteration      1(   3)  ---------------------------------------


    POTLOK:  cpu time   11.1870: real time   11.1992
    SETDIJ:  cpu time    0.9799: real time    0.9800
    EDDIAG:  cpu time    0.0001: real time    0.0001
       DOS:  cpu time    0.0059: real time    0.0059
    CHARGE:  cpu time    5.2410: real time    5.2450
    MIXING:  cpu time    0.0326: real time    0.0326
    --------------------------------------------
      LOOP:  cpu time   17.4465: real time   17.4628

 eigenvalue-minimisations  :     0
 total energy-change (2. order) :-0.9604264E-09  ( 0.0000000E+00)
 number of electron     828.0000020 magnetization      -5.9999997
 augmentation part      288.1295052 magnetization      -4.0525576

 Free energy of the ion-electron system (eV)
  ---------------------------------------------------
  alpha Z        PSCENC =      1506.12382579
  Ewald energy   TEWEN  =    498986.30201855
  -Hartree energ DENC   =   -565039.05643261
  -exchange      EXHF   =         0.00000000
  -V(xc)+E(xc)   XCENC  =      2009.14223104
  PAW double counting   =     81320.50190873   -83853.85090793
  entropy T*S    EENTRO =        -0.00000000
  eigenvalues    EBANDS =     -5325.78742850
  atomic energy  EATOM  =     67112.18244413
  Solvation  Ediel_sol  =         0.00000000
  ---------------------------------------------------
  free energy    TOTEN  =     -3284.44234080 eV

  energy without entropy =    -3284.44234080  energy(sigma->0) =    -3284.44234080
  exchange ACFDT corr.  =         0.00000000  see jH, gK, PRB 81, 115126


--------------------------------------------------------------------------------------------------------




--------------------------------------- Iteration      1(   4)  ---------------------------------------


    POTLOK:  cpu time    9.5236: real time    9.5287
    SETDIJ:  cpu time    0.8649: real time    0.8650
    EDDIAG:  cpu time    0.0001: real time    0.0001
       DOS:  cpu time    0.0059: real time    0.0059
    CHARGE:  cpu time    5.5823: real time    5.5855
    MIXING:  cpu time    0.0347: real time    0.0347
    --------------------------------------------
      LOOP:  cpu time   16.0114: real time   16.0199

 eigenvalue-minimisations  :     0
 total energy-change (2. order) : 0.2706656E-08  ( 0.0000000E+00)
 number of electron     828.0000020 magnetization      -5.9999997
 augmentation part      288.1295052 magnetization      -4.0525576

 Free energy of the ion-electron system (eV)
  ---------------------------------------------------
  alpha Z        PSCENC =      1506.12382579
  Ewald energy   TEWEN  =    498986.30201855
  -Hartree energ DENC   =   -565039.05643261
  -exchange      EXHF   =         0.00000000
  -V(xc)+E(xc)   XCENC  =      2009.14223104
  PAW double counting   =     81320.50190874   -83853.85090794
  entropy T*S    EENTRO =        -0.00000000
  eigenvalues    EBANDS =     -5325.78742850
  atomic energy  EATOM  =     67112.18244413
  Solvation  Ediel_sol  =         0.00000000
  ---------------------------------------------------
  free energy    TOTEN  =     -3284.44234079 eV

  energy without entropy =    -3284.44234079  energy(sigma->0) =    -3284.44234079
  exchange ACFDT corr.  =         0.00000000  see jH, gK, PRB 81, 115126


--------------------------------------------------------------------------------------------------------




--------------------------------------- Iteration      1(   5)  ---------------------------------------


    POTLOK:  cpu time    9.9964: real time   10.0067
    SETDIJ:  cpu time    0.9031: real time    0.9031
    EDDIAG:  cpu time    0.0001: real time    0.0001
       DOS:  cpu time    0.0059: real time    0.0059
    CHARGE:  cpu time    5.6039: real time    5.6093
    MIXING:  cpu time    0.0347: real time    0.0347
    --------------------------------------------
      LOOP:  cpu time   16.5440: real time   16.5597

 eigenvalue-minimisations  :     0
 total energy-change (2. order) :-0.1469743E-08  ( 0.0000000E+00)
 number of electron     828.0000020 magnetization      -5.9999997
 augmentation part      288.1295052 magnetization      -4.0525576

 Free energy of the ion-electron system (eV)
  ---------------------------------------------------
  alpha Z        PSCENC =      1506.12382579
  Ewald energy   TEWEN  =    498986.30201855
  -Hartree energ DENC   =   -565039.05643261
  -exchange      EXHF   =         0.00000000
  -V(xc)+E(xc)   XCENC  =      2009.14223104
  PAW double counting   =     81320.50190873   -83853.85090793
  entropy T*S    EENTRO =        -0.00000000
  eigenvalues    EBANDS =     -5325.78742850
  atomic energy  EATOM  =     67112.18244413
  Solvation  Ediel_sol  =         0.00000000
  ---------------------------------------------------
  free energy    TOTEN  =     -3284.44234080 eV

  energy without entropy =    -3284.44234080  energy(sigma->0) =    -3284.44234080
  exchange ACFDT corr.  =         0.00000000  see jH, gK, PRB 81, 115126


--------------------------------------------------------------------------------------------------------




--------------------------------------- Iteration      1(   6)  ---------------------------------------


    POTLOK:  cpu time    9.8144: real time    9.9569
    SETDIJ:  cpu time    0.9340: real time    0.9709
    EDDIAG:  cpu time    0.0001: real time    0.0001
       DOS:  cpu time    0.0061: real time    0.0061
    --------------------------------------------
      LOOP:  cpu time   10.7545: real time   10.9340

 eigenvalue-minimisations  :     0
 total energy-change (2. order) : 0.1877197E-08  ( 0.0000000E+00)
 number of electron     828.0000020 magnetization      -5.9999997
 augmentation part      288.1295052 magnetization      -4.0525576

 Free energy of the ion-electron system (eV)
  ---------------------------------------------------
  alpha Z        PSCENC =      1506.12382579
  Ewald energy   TEWEN  =    498986.30201855
  -Hartree energ DENC   =   -565039.05643261
  -exchange      EXHF   =         0.00000000
  -V(xc)+E(xc)   XCENC  =      2009.14223104
  PAW double counting   =     81320.50190874   -83853.85090793
  entropy T*S    EENTRO =        -0.00000000
  eigenvalues    EBANDS =     -5325.78742850
  atomic energy  EATOM  =     67112.18244413
  Solvation  Ediel_sol  =         0.00000000
  ---------------------------------------------------
  free energy    TOTEN  =     -3284.44234079 eV

  energy without entropy =    -3284.44234079  energy(sigma->0) =    -3284.44234079
  exchange ACFDT corr.  =         0.00000000  see jH, gK, PRB 81, 115126


--------------------------------------------------------------------------------------------------------




 average (electrostatic) potential at core
  the test charge radii are     0.7215  1.0452
  (the norm of the test charge is              1.0000)
       1 -69.4353       2 -69.4479       3 -68.0394       4 -68.3657       5 -68.1853
       6 -68.1175       7 -68.1991       8 -68.1146       9 -67.9883      10 -68.1617
      11 -68.1916      12 -67.8190      13 -68.1349      14 -68.4938      15 -67.9588
      16 -68.0920      17 -68.0769      18 -68.1135      19 -67.6264      20 -68.1974
      21 -67.6597      22 -68.2071      23 -68.3472      24 -68.3193      25 -67.9977
      26 -68.1948      27 -68.3749      28 -68.2260      29 -68.1450      30 -67.9254
      31 -68.1518      32 -67.4956      33 -68.5233      34 -68.2177      35 -67.9298
      36 -68.2168      37 -68.1980      38 -69.1805      39 -68.7445      40 -68.2311
      41 -68.1689      42 -68.6569      43 -67.6459      44 -68.1658      45 -68.1436
      46 -68.2844      47 -67.6701      48 -68.1669      49 -68.3720      50 -68.2263
      51 -68.2156      52 -68.9780      53 -68.1627      54 -68.2752      55 -68.8034
      56 -68.2302      57 -68.1961      58 -68.6540      59 -68.1925      60 -67.8162
      61 -68.0541      62 -68.2024      63 -68.3713      64 -68.3240      65 -68.0913
      66 -68.1206      67 -81.6251      68 -81.8529      69 -81.8420      70 -81.7430
      71 -81.8183      72 -81.7365      73 -81.7012      74 -81.8866      75 -81.7194
      76 -81.8561      77 -81.7922      78 -83.9734      79 -81.8567      80 -84.1892
      81 -81.6324      82 -81.8581      83 -82.1983      84 -82.4323      85 -82.6888
      86 -82.1861      87 -82.5832      88 -82.1868      89 -82.0645      90 -82.0079
      91 -82.7918      92 -82.1819      93 -82.1640      94 -82.3086      95 -81.9625
      96 -82.1329      97 -82.1747      98 -82.4852      99 -82.1608     100 -83.8992
     101 -82.3084     102 -82.2641     103 -82.2119     104 -82.2635     105 -82.4138
     106 -82.1862     107 -82.0802     108 -82.0473     109 -82.1554     110 -83.9006
     111 -82.1900     112 -82.1322     113 -82.1648     114 -82.4905
 
 
 
 E-fermi :  -0.2536     XC(G=0):  -5.5199     alpha+bet : -6.8075


 spin component 1

 k-point     1 :       0.0000    0.0000    0.0000
  band No.  band energies     occupation 
      1     -21.8016      1.00000
      2     -21.5561      1.00000
      3     -21.4491      1.00000
      4     -21.3537      1.00000
      5     -21.1332      1.00000
      6     -21.0298      1.00000
      7     -20.9139      1.00000
      8     -20.9122      1.00000
      9     -20.8759      1.00000
     10     -20.8404      1.00000
     11     -20.8192      1.00000
     12     -20.6982      1.00000
     13     -20.6441      1.00000
     14     -20.5544      1.00000
     15     -20.5046      1.00000
     16     -20.4321      1.00000
     17     -20.3495      1.00000
     18     -20.2863      1.00000
     19     -20.2192      1.00000
     20     -20.1881      1.00000
     21     -20.1077      1.00000
     22     -20.0856      1.00000
     23     -20.0366      1.00000
     24     -20.0067      1.00000
     25     -20.0034      1.00000
     26     -19.9950      1.00000
     27     -19.9430      1.00000
     28     -19.9398      1.00000
     29     -19.9236      1.00000
     30     -19.9039      1.00000
     31     -19.9025      1.00000
     32     -19.8955      1.00000
     33     -19.8946      1.00000
     34     -19.8768      1.00000
     35     -19.8632      1.00000
     36     -19.8573      1.00000
     37     -19.8289      1.00000
     38     -19.8090      1.00000
     39     -19.8082      1.00000
     40     -19.7862      1.00000
     41     -19.7789      1.00000
     42     -19.7569      1.00000
     43     -19.7391      1.00000
     44     -19.7256      1.00000
     45     -19.7138      1.00000
     46     -19.6821      1.00000
     47     -19.6739      1.00000
     48     -19.6721      1.00000
     49     -19.6671      1.00000
     50     -19.6547      1.00000
     51     -19.6416      1.00000
     52     -19.6306      1.00000
     53     -19.6238      1.00000
     54     -19.5750      1.00000
     55     -19.5146      1.00000
     56     -19.4909      1.00000
     57     -19.4452      1.00000
     58     -19.4045      1.00000
     59     -19.3294      1.00000
     60     -19.2729      1.00000
     61     -19.2688      1.00000
     62     -19.2348      1.00000
     63     -19.1323      1.00000
     64     -19.0772      1.00000
     65     -18.9220      1.00000
     66     -18.7916      1.00000
     67      -8.5561      1.00000
     68      -8.3822      1.00000
     69      -8.3414      1.00000
     70      -8.1322      1.00000
     71      -8.0124      1.00000
     72      -7.8302      1.00000
     73      -7.7085      1.00000
     74      -7.5298      1.00000
     75      -7.5077      1.00000
     76      -7.4977      1.00000
     77      -7.4558      1.00000
     78      -7.4362      1.00000
     79      -7.4247      1.00000
     80      -7.3880      1.00000
     81      -7.3000      1.00000
     82      -7.2541      1.00000
     83      -7.2374      1.00000
     84      -7.2306      1.00000
     85      -7.2097      1.00000
     86      -7.1487      1.00000
     87      -7.1181      1.00000
     88      -7.1114      1.00000
     89      -7.0827      1.00000
     90      -7.0472      1.00000
     91      -6.9831      1.00000
     92      -6.9605      1.00000
     93      -6.9387      1.00000
     94      -6.8985      1.00000
     95      -6.8915      1.00000
     96      -6.8243      1.00000
     97      -6.8072      1.00000
     98      -6.7823      1.00000
     99      -6.7397      1.00000
    100      -6.7085      1.00000
    101      -6.6976      1.00000
    102      -6.6598      1.00000
    103      -6.6468      1.00000
    104      -6.6327      1.00000
    105      -6.5742      1.00000
    106      -6.5469      1.00000
    107      -6.5170      1.00000
    108      -6.5127      1.00000
    109      -6.4911      1.00000
    110      -6.4608      1.00000
    111      -6.4382      1.00000
    112      -6.4361      1.00000
    113      -6.4099      1.00000
    114      -6.3873      1.00000
    115      -6.3792      1.00000
    116      -6.3465      1.00000
    117      -6.2923      1.00000
    118      -6.2881      1.00000
    119      -6.2499      1.00000
    120      -6.2284      1.00000
    121      -6.1600      1.00000
    122      -6.1272      1.00000
    123      -6.0873      1.00000
    124      -6.0751      1.00000
    125      -6.0600      1.00000
    126      -6.0307      1.00000
    127      -6.0153      1.00000
    128      -6.0097      1.00000
    129      -5.9934      1.00000
    130      -5.9518      1.00000
    131      -5.9171      1.00000
    132      -5.8959      1.00000
    133      -5.8834      1.00000
    134      -5.8643      1.00000
    135      -5.8383      1.00000
    136      -5.8206      1.00000
    137      -5.8024      1.00000
    138      -5.7871      1.00000
    139      -5.7830      1.00000
    140      -5.7704      1.00000
    141      -5.7582      1.00000
    142      -5.7427      1.00000
    143      -5.7390      1.00000
    144      -5.7237      1.00000
    145      -5.7024      1.00000
    146      -5.6906      1.00000
    147      -5.6858      1.00000
    148      -5.6617      1.00000
    149      -5.6417      1.00000
    150      -5.6225      1.00000
    151      -5.6078      1.00000
    152      -5.5839      1.00000
    153      -5.5809      1.00000
    154      -5.5539      1.00000
    155      -5.5266      1.00000
    156      -5.5132      1.00000
    157      -5.4814      1.00000
    158      -5.4621      1.00000
    159      -5.4367      1.00000
    160      -5.3728      1.00000
    161      -5.3209      1.00000
    162      -5.2943      1.00000
    163      -5.2683      1.00000
    164      -5.2611      1.00000
    165      -5.2356      1.00000
    166      -5.2099      1.00000
    167      -5.2033      1.00000
    168      -5.1930      1.00000
    169      -5.1814      1.00000
    170      -5.1376      1.00000
    171      -5.1223      1.00000
    172      -5.1059      1.00000
    173      -5.0709      1.00000
    174      -5.0503      1.00000
    175      -5.0427      1.00000
    176      -5.0077      1.00000
    177      -4.9922      1.00000
    178      -4.9865      1.00000
    179      -4.9802      1.00000
    180      -4.9647      1.00000
    181      -4.9559      1.00000
    182      -4.9227      1.00000
    183      -4.8941      1.00000
    184      -4.8663      1.00000
    185      -4.8620      1.00000
    186      -4.8529      1.00000
    187      -4.8335      1.00000
    188      -4.8237      1.00000
    189      -4.8152      1.00000
    190      -4.8001      1.00000
    191      -4.7616      1.00000
    192      -4.7438      1.00000
    193      -4.7369      1.00000
    194      -4.7308      1.00000
    195      -4.6776      1.00000
    196      -4.6664      1.00000
    197      -4.6582      1.00000
    198      -4.6534      1.00000
    199      -4.6330      1.00000
    200      -4.6190      1.00000
    201      -4.6164      1.00000
    202      -4.5676      1.00000
    203      -4.5481      1.00000
    204      -4.5189      1.00000
    205      -4.4944      1.00000
    206      -4.4800      1.00000
    207      -4.4595      1.00000
    208      -4.4182      1.00000
    209      -4.3975      1.00000
    210      -4.3712      1.00000
    211      -4.3347      1.00000
    212      -4.3196      1.00000
    213      -4.3127      1.00000
    214      -4.2608      1.00000
    215      -4.2406      1.00000
    216      -4.2205      1.00000
    217      -4.2020      1.00000
    218      -4.1560      1.00000
    219      -4.1464      1.00000
    220      -4.1238      1.00000
    221      -4.1046      1.00000
    222      -4.0909      1.00000
    223      -4.0626      1.00000
    224      -4.0479      1.00000
    225      -4.0363      1.00000
    226      -4.0240      1.00000
    227      -4.0027      1.00000
    228      -3.9888      1.00000
    229      -3.9680      1.00000
    230      -3.9439      1.00000
    231      -3.9265      1.00000
    232      -3.9173      1.00000
    233      -3.8919      1.00000
    234      -3.8628      1.00000
    235      -3.8524      1.00000
    236      -3.8284      1.00000
    237      -3.7774      1.00000
    238      -3.7731      1.00000
    239      -3.7366      1.00000
    240      -3.7307      1.00000
    241      -3.7060      1.00000
    242      -3.6690      1.00000
    243      -3.6415      1.00000
    244      -3.6124      1.00000
    245      -3.5409      1.00000
    246      -3.5294      1.00000
    247      -3.4775      1.00000
    248      -3.4445      1.00000
    249      -3.4077      1.00000
    250      -3.3867      1.00000
    251      -3.3661      1.00000
    252      -3.3605      1.00000
    253      -3.3150      1.00000
    254      -3.3016      1.00000
    255      -3.2889      1.00000
    256      -3.2673      1.00000
    257      -3.2541      1.00000
    258      -3.2451      1.00000
    259      -3.1870      1.00000
    260      -3.1512      1.00000
    261      -3.1126      1.00000
    262      -3.1084      1.00000
    263      -3.0833      1.00000
    264      -3.0767      1.00000
    265      -3.0562      1.00000
    266      -3.0459      1.00000
    267      -3.0357      1.00000
    268      -3.0284      1.00000
    269      -3.0029      1.00000
    270      -2.9940      1.00000
    271      -2.9759      1.00000
    272      -2.9625      1.00000
    273      -2.9534      1.00000
    274      -2.9457      1.00000
    275      -2.9364      1.00000
    276      -2.9311      1.00000
    277      -2.9223      1.00000
    278      -2.9127      1.00000
    279      -2.8909      1.00000
    280      -2.8695      1.00000
    281      -2.8521      1.00000
    282      -2.8080      1.00000
    283      -2.7919      1.00000
    284      -2.7886      1.00000
    285      -2.7812      1.00000
    286      -2.7458      1.00000
    287      -2.7268      1.00000
    288      -2.6861      1.00000
    289      -2.6716      1.00000
    290      -2.6632      1.00000
    291      -2.6211      1.00000
    292      -2.5914      1.00000
    293      -2.5901      1.00000
    294      -2.5709      1.00000
    295      -2.5619      1.00000
    296      -2.5378      1.00000
    297      -2.5191      1.00000
    298      -2.5039      1.00000
    299      -2.4987      1.00000
    300      -2.4592      1.00000
    301      -2.4409      1.00000
    302      -2.4126      1.00000
    303      -2.3606      1.00000
    304      -2.3312      1.00000
    305      -2.3238      1.00000
    306      -2.3060      1.00000
    307      -2.2952      1.00000
    308      -2.2829      1.00000
    309      -2.2615      1.00000
    310      -2.2451      1.00000
    311      -2.2265      1.00000
    312      -2.1961      1.00000
    313      -2.1823      1.00000
    314      -2.1656      1.00000
    315      -2.1439      1.00000
    316      -2.1281      1.00000
    317      -2.1255      1.00000
    318      -2.1181      1.00000
    319      -2.0986      1.00000
    320      -2.0963      1.00000
    321      -2.0919      1.00000
    322      -2.0895      1.00000
    323      -2.0804      1.00000
    324      -2.0685      1.00000
    325      -2.0585      1.00000
    326      -2.0454      1.00000
    327      -2.0412      1.00000
    328      -2.0318      1.00000
    329      -2.0276      1.00000
    330      -2.0176      1.00000
    331      -2.0087      1.00000
    332      -2.0061      1.00000
    333      -1.9856      1.00000
    334      -1.9782      1.00000
    335      -1.9578      1.00000
    336      -1.9505      1.00000
    337      -1.9420      1.00000
    338      -1.9389      1.00000
    339      -1.9281      1.00000
    340      -1.9099      1.00000
    341      -1.9048      1.00000
    342      -1.8847      1.00000
    343      -1.8572      1.00000
    344      -1.8387      1.00000
    345      -1.8236      1.00000
    346      -1.8059      1.00000
    347      -1.7647      1.00000
    348      -1.7518      1.00000
    349      -1.7406      1.00000
    350      -1.7284      1.00000
    351      -1.7262      1.00000
    352      -1.6930      1.00000
    353      -1.6833      1.00000
    354      -1.6798      1.00000
    355      -1.6300      1.00000
    356      -1.6161      1.00000
    357      -1.6033      1.00000
    358      -1.5855      1.00000
    359      -1.5607      1.00000
    360      -1.5473      1.00000
    361      -1.5407      1.00000
    362      -1.5308      1.00000
    363      -1.5115      1.00000
    364      -1.4867      1.00000
    365      -1.4799      1.00000
    366      -1.4341      1.00000
    367      -1.4106      1.00000
    368      -1.4057      1.00000
    369      -1.3934      1.00000
    370      -1.3907      1.00000
    371      -1.3778      1.00000
    372      -1.3346      1.00000
    373      -1.3189      1.00000
    374      -1.3031      1.00000
    375      -1.2928      1.00000
    376      -1.2737      1.00000
    377      -1.2604      1.00000
    378      -1.2418      1.00000
    379      -1.2231      1.00000
    380      -1.2166      1.00000
    381      -1.1956      1.00000
    382      -1.1579      1.00000
    383      -1.1413      1.00000
    384      -1.1310      1.00000
    385      -1.0843      1.00000
    386      -1.0614      1.00000
    387      -1.0428      1.00000
    388      -1.0356      1.00000
    389      -1.0111      1.00000
    390      -1.0076      1.00000
    391      -1.0008      1.00000
    392      -0.9977      1.00000
    393      -0.9641      1.00000
    394      -0.9533      1.00000
    395      -0.9187      1.00000
    396      -0.9000      1.00000
    397      -0.8967      1.00000
    398      -0.8022      1.00000
    399      -0.7873      1.00000
    400      -0.7832      1.00000
    401      -0.7672      1.00000
    402      -0.7280      1.00000
    403      -0.7026      1.00000
    404      -0.6637      1.00000
    405      -0.6503      1.00000
    406      -0.5688      1.00000
    407      -0.4930      1.00000
    408      -0.4499      1.00000
    409      -0.4289      1.00000
    410      -0.3392      1.00000
    411      -0.2642      1.00000
    412       1.3589      0.00000
    413       1.5841      0.00000
    414       1.7615      0.00000
    415       2.1037      0.00000
    416       2.3666      0.00000
    417       2.4808      0.00000
    418       2.5112      0.00000
    419       2.5646      0.00000
    420       2.5825      0.00000
    421       2.6505      0.00000
    422       2.6583      0.00000
    423       2.7935      0.00000
    424       2.8347      0.00000
    425       2.8832      0.00000
    426       2.9484      0.00000
    427       2.9693      0.00000
    428       3.0330      0.00000
    429       3.0606      0.00000
    430       3.0939      0.00000
    431       3.1353      0.00000
    432       3.1432      0.00000
    433       3.1632      0.00000
    434       3.1787      0.00000
    435       3.2005      0.00000
    436       3.2063      0.00000
    437       3.2173      0.00000
    438       3.2525      0.00000
    439       3.2856      0.00000
    440       3.3127      0.00000
    441       3.3646      0.00000
    442       3.3958      0.00000
    443       3.4162      0.00000
    444       3.4328      0.00000
    445       3.4898      0.00000
    446       3.5246      0.00000
    447       3.5434      0.00000
    448       3.5713      0.00000
    449       3.5870      0.00000
    450       3.6032      0.00000
    451       3.6170      0.00000
    452       3.6311      0.00000
    453       3.6968      0.00000
    454       3.7214      0.00000
    455       3.7384      0.00000
    456       3.7588      0.00000
    457       3.7656      0.00000
    458       3.7747      0.00000
    459       3.8075      0.00000
    460       3.8177      0.00000
    461       3.8424      0.00000
    462       3.8650      0.00000
    463       3.8728      0.00000
    464       3.9182      0.00000
    465       3.9809      0.00000
    466       4.0042      0.00000
    467       4.0259      0.00000
    468       4.0416      0.00000
    469       4.0809      0.00000
    470       4.0977      0.00000
    471       4.1096      0.00000
    472       4.1487      0.00000
    473       4.1724      0.00000
    474       4.1846      0.00000
    475       4.2008      0.00000
    476       4.2068      0.00000
    477       4.2171      0.00000
    478       4.2557      0.00000
    479       4.2700      0.00000
    480       4.3141      0.00000
    481       4.3359      0.00000
    482       4.4880      0.00000
    483       4.8195      0.00000
    484       4.8443      0.00000
    485       4.8458      0.00000
    486       4.8749      0.00000
    487       4.8913      0.00000
    488       4.9140      0.00000
    489       4.9358      0.00000
    490       4.9414      0.00000
    491       4.9511      0.00000
    492       4.9764      0.00000
    493       5.0095      0.00000
    494       5.0197      0.00000
    495       5.0296      0.00000
    496       5.0441      0.00000
    497       7.0441      0.00000
    498       7.0441      0.00000
    499       7.0441      0.00000
    500       7.0441      0.00000
    501       7.0441      0.00000
    502       7.0441      0.00000
    503       7.0441      0.00000
    504       7.0441      0.00000
    505       7.0441      0.00000
    506       7.0441      0.00000
    507       7.0441      0.00000
    508       7.0441      0.00000
    509       7.0441      0.00000
    510       7.0441      0.00000
    511       7.0441      0.00000
    512       7.0441      0.00000
    513       7.0441      0.00000
    514       7.0441      0.00000
    515       7.0441      0.00000
    516       7.0441      0.00000
    517       7.0441      0.00000
    518       7.0441      0.00000
    519       7.0441      0.00000
    520       7.0441      0.00000
    521       7.0441      0.00000
    522       7.0441      0.00000
    523       7.0441      0.00000
    524       7.0441      0.00000
    525       7.0441      0.00000
    526       7.0441      0.00000
    527       7.0441      0.00000
    528       7.0441      0.00000
    529       7.0441      0.00000
    530       7.0441      0.00000
    531       7.0441      0.00000
    532       7.0441      0.00000
    533       7.0441      0.00000
    534       7.0441      0.00000
    535       7.0441      0.00000
    536       7.0441      0.00000
    537       8.2010      0.00000
    538       7.0441      0.00000
    539       7.0441      0.00000
    540       7.0441      0.00000
    541       7.0441      0.00000
    542       7.0441      0.00000
    543       7.0441      0.00000
    544       7.0441      0.00000
    545       7.0441      0.00000
    546       7.0441      0.00000
    547       7.0441      0.00000
    548       7.0441      0.00000
    549       7.0441      0.00000
    550       7.0441      0.00000
    551       7.0441      0.00000
    552       7.0441      0.00000
    553       7.0441      0.00000
    554       7.0441      0.00000
    555       7.0441      0.00000
    556       7.0441      0.00000
    557       7.0441      0.00000
    558       7.0441      0.00000
    559       7.0441      0.00000
    560       7.0441      0.00000
    561       7.0441      0.00000
    562       7.0441      0.00000
    563       7.0441      0.00000
    564       7.0441      0.00000
    565       7.0441      0.00000
    566       7.0441      0.00000
    567       7.0441      0.00000
    568       7.0441      0.00000
    569       7.0441      0.00000
    570       7.0441      0.00000
    571       7.0441      0.00000
    572       7.0441      0.00000
    573       7.0441      0.00000
    574       7.0441      0.00000
    575       7.0441      0.00000
    576       7.0441      0.00000
    577       7.0441      0.00000
    578       7.0441      0.00000
    579       7.0441      0.00000
    580       7.0441      0.00000
    581       7.0441      0.00000
    582       7.0441      0.00000
    583       7.0441      0.00000
    584       7.0441      0.00000
    585       7.0441      0.00000
    586       7.0441      0.00000
    587       7.0441      0.00000
    588       7.0441      0.00000
    589       7.0441      0.00000
    590       7.0441      0.00000
    591       7.0441      0.00000
    592       7.0441      0.00000
    593      17.0985      0.00000
    594       7.0441      0.00000
    595       7.0441      0.00000
    596       7.0441      0.00000
    597       7.0441      0.00000
    598       7.0441      0.00000
    599       7.0441      0.00000
    600       7.0441      0.00000
    601       7.0441      0.00000
    602       7.0441      0.00000
    603       7.0441      0.00000
    604       7.0441      0.00000
    605       7.0441      0.00000
    606       7.0441      0.00000
    607       7.0441      0.00000
    608       7.0441      0.00000
    609       7.0441      0.00000
    610       7.0441      0.00000
    611       7.0441      0.00000
    612       7.0441      0.00000
    613       7.0441      0.00000
    614       7.0441      0.00000
    615       7.0441      0.00000
    616       7.0441      0.00000
    617       7.0441      0.00000
    618       7.0441      0.00000
    619       7.0441      0.00000
    620       7.0441      0.00000
    621       7.0441      0.00000
    622       7.0441      0.00000
    623       7.0441      0.00000
    624       7.0441      0.00000
    625       7.0441      0.00000
    626       7.0441      0.00000
    627       7.0441      0.00000
    628       7.0441      0.00000
    629       7.0441      0.00000
    630       7.0441      0.00000
    631       7.0441      0.00000
    632       7.0441      0.00000
    633       7.0441      0.00000
    634       7.0441      0.00000
    635       7.0441      0.00000
    636       7.0441      0.00000
    637       7.0441      0.00000
    638       7.0441      0.00000
    639       7.0441      0.00000
    640       7.0441      0.00000
    641       7.0441      0.00000
    642       7.0441      0.00000
    643       7.0441      0.00000
    644       7.0441      0.00000
    645       7.0441      0.00000
    646       7.0441      0.00000
    647       7.0441      0.00000
    648       7.0441      0.00000
    649       7.0441      0.00000
    650       7.0441      0.00000
    651       7.0441      0.00000
    652       7.0441      0.00000
    653       7.0441      0.00000
    654       7.0441      0.00000
    655       7.0441      0.00000
    656       7.0441      0.00000
    657       7.0441      0.00000
    658       7.0441      0.00000
    659       7.0441      0.00000
    660       7.0441      0.00000
    661       7.0441      0.00000
    662       7.0441      0.00000
[...]
   56        1.556   3.504   0.000   5.060
   57        1.556   3.509   0.000   5.065
   58        1.561   3.509   0.000   5.070
   59        1.556   3.504   0.000   5.060
   60        1.564   3.472   0.000   5.036
   61        1.565   3.465   0.000   5.030
   62        1.556   3.504   0.000   5.060
   63        1.557   3.505   0.000   5.062
   64        1.559   3.497   0.000   5.056
   65        1.556   3.509   0.000   5.065
   66        1.557   3.506   0.000   5.063
   67        0.398   0.551   7.140   8.088
   68        0.336   0.422   7.079   7.837
   69        0.335   0.421   7.079   7.835
   70        0.347   0.445   7.088   7.881
   71        0.334   0.420   7.078   7.832
   72        0.347   0.445   7.088   7.880
   73        0.335   0.419   7.072   7.826
   74        0.334   0.420   7.079   7.834
   75        0.353   0.464   7.108   7.925
   76        0.340   0.433   7.087   7.859
   77        0.335   0.421   7.079   7.836
   78        0.459   0.385   7.019   7.863
   79        0.336   0.422   7.080   7.837
   80        0.418   0.353   7.031   7.802
   81        0.351   0.460   7.104   7.916
   82        0.340   0.433   7.087   7.859
   83        0.418   0.651   7.196   8.265
   84        0.432   0.684   7.237   8.353
   85        0.400   0.538   7.138   8.076
   86        0.419   0.656   7.196   8.271
   87        0.417   0.617   7.144   8.178
   88        0.419   0.656   7.196   8.271
   89        0.418   0.655   7.196   8.269
   90        0.425   0.666   7.214   8.306
   91        0.357   0.453   7.007   7.818
   92        0.419   0.656   7.196   8.271
   93        0.417   0.650   7.196   8.263
   94        0.432   0.686   7.232   8.350
   95        0.427   0.680   7.223   8.330
   96        0.421   0.660   7.200   8.281
   97        0.419   0.656   7.197   8.272
   98        0.434   0.641   7.214   8.289
   99        0.419   0.656   7.197   8.272
  100        0.513   0.844   7.192   8.549
  101        0.422   0.661   7.211   8.294
  102        0.421   0.658   7.201   8.280
  103        0.427   0.678   7.224   8.329
  104        0.420   0.658   7.201   8.280
  105        0.436   0.654   7.197   8.287
  106        0.419   0.656   7.196   8.271
  107        0.419   0.655   7.197   8.272
  108        0.429   0.680   7.227   8.336
  109        0.419   0.656   7.197   8.272
  110        0.513   0.844   7.190   8.546
  111        0.397   0.606   7.155   8.157
  112        0.421   0.659   7.200   8.280
  113        0.419   0.656   7.197   8.272
  114        0.433   0.640   7.213   8.286
--------------------------------------------------
tot        122.351 258.050 343.477 723.878
 


 magnetization (x)
 
# of ion       s       p       d       tot
------------------------------------------
    1       -0.013  -0.861   0.000  -0.874
    2       -0.013  -0.865   0.000  -0.878
    3       -0.006  -0.021   0.000  -0.027
    4       -0.003  -0.025   0.000  -0.029
    5       -0.004  -0.028   0.000  -0.032
    6       -0.003   0.064   0.000   0.061
    7       -0.003  -0.028   0.000  -0.032
    8       -0.003   0.068   0.000   0.065
    9       -0.004  -0.030   0.000  -0.034
   10       -0.004  -0.032   0.000  -0.036
   11       -0.004  -0.029   0.000  -0.032
   12       -0.005  -0.013   0.000  -0.018
   13       -0.004  -0.022   0.000  -0.027
   14       -0.004  -0.024   0.000  -0.028
   15       -0.004  -0.008   0.000  -0.013
   16       -0.003  -0.029   0.000  -0.032
   17       -0.004  -0.031   0.000  -0.035
   18       -0.004  -0.031   0.000  -0.036
   19       -0.003   0.012   0.000   0.009
   20       -0.004  -0.029   0.000  -0.032
   21       -0.003  -0.004   0.000  -0.007
   22       -0.003  -0.029   0.000  -0.032
   23       -0.004  -0.025   0.000  -0.029
   24       -0.005  -0.021   0.000  -0.026
   25       -0.004   0.127   0.000   0.123
   26       -0.004  -0.029   0.000  -0.032
   27        0.004   0.020   0.000   0.024
   28        0.004   0.029   0.000   0.033
   29        0.004   0.029   0.000   0.032
   30       -0.001   0.030   0.000   0.029
   31        0.004   0.029   0.000   0.032
   32        0.000  -0.019   0.000  -0.019
   33        0.004   0.020   0.000   0.024
   34        0.004   0.029   0.000   0.033
   35       -0.002  -0.047   0.000  -0.049
   36        0.004   0.029   0.000   0.033
   37        0.003   0.029   0.000   0.032
   38       -0.000   0.065   0.000   0.064
   39        0.002   0.076   0.000   0.078
   40        0.004   0.028   0.000   0.032
   41        0.004   0.030   0.000   0.034
   42        0.004   0.027   0.000   0.031
   43       -0.001   0.065   0.000   0.064
   44        0.004   0.028   0.000   0.032
   45        0.004   0.029   0.000   0.033
   46        0.005   0.046   0.000   0.051
   47        0.001   0.027   0.000   0.028
   48        0.004   0.028   0.000   0.032
   49        0.004   0.018   0.000   0.021
   50        0.004   0.029   0.000   0.033
   51        0.003   0.028   0.000   0.031
   52        0.002   0.080   0.000   0.083
   53        0.004   0.031   0.000   0.035
   54        0.005   0.047   0.000   0.051
   55       -0.000   0.089   0.000   0.089
   56        0.004   0.028   0.000   0.032
   57        0.004   0.029   0.000   0.033
   58        0.004   0.026   0.000   0.031
   59       -0.003  -0.028   0.000  -0.032
   60       -0.005  -0.012   0.000  -0.017
   61       -0.004   0.026   0.000   0.022
   62       -0.003  -0.029   0.000  -0.032
   63       -0.003  -0.024   0.000  -0.028
   64       -0.005  -0.021   0.000  -0.026
   65       -0.004  -0.032   0.000  -0.036
   66       -0.004  -0.031   0.000  -0.036
   67       -0.018  -0.053  -2.394  -2.465
   68       -0.010  -0.045  -2.605  -2.660
   69       -0.010  -0.045  -2.606  -2.661
   70       -0.012  -0.039  -2.575  -2.626
   71       -0.010  -0.045  -2.609  -2.663
   72       -0.012  -0.039  -2.577  -2.627
   73       -0.013  -0.042  -2.594  -2.649
   74       -0.010  -0.045  -2.608  -2.662
   75        0.010   0.050   2.588   2.648
   76        0.010   0.046   2.606   2.662
   77        0.010   0.045   2.607   2.662
   78       -0.004   0.036   2.623   2.656
   79        0.010   0.045   2.606   2.661
   80       -0.002   0.038   2.627   2.664
   81        0.009   0.047   2.591   2.647
   82        0.010   0.046   2.606   2.662
   83        0.000  -0.000   0.001   0.001
   84        0.000   0.001   0.005   0.006
   85        0.002  -0.001  -0.110  -0.108
   86        0.000   0.000   0.001   0.001
   87       -0.000   0.002  -0.019  -0.017
   88        0.000   0.000   0.001   0.001
   89       -0.000  -0.000  -0.005  -0.006
   90       -0.001  -0.001   0.010   0.008
   91       -0.024  -0.015  -2.267  -2.306
   92        0.000   0.000   0.001   0.001
   93        0.000  -0.000  -0.003  -0.004
   94       -0.000  -0.000   0.003   0.002
   95       -0.002  -0.002  -0.013  -0.016
   96       -0.000   0.000  -0.000  -0.000
   97        0.000   0.000   0.001   0.001
   98       -0.000   0.002  -0.019  -0.016
   99        0.000   0.000   0.001   0.002
  100       -0.004   0.004  -1.078  -1.078
  101        0.001   0.001   0.003   0.005
  102        0.000   0.000   0.003   0.003
  103        0.000   0.001   0.008   0.009
  104        0.000   0.000   0.003   0.003
  105       -0.000   0.003   0.007   0.009
  106        0.000   0.000   0.001   0.001
  107        0.000  -0.000  -0.003  -0.003
  108       -0.002  -0.001  -0.011  -0.014
  109       -0.000   0.000   0.001   0.001
  110       -0.004   0.004  -1.078  -1.078
  111       -0.001  -0.000   0.012   0.010
  112       -0.000   0.000  -0.000  -0.000
  113        0.000   0.000   0.001   0.001
  114       -0.000   0.003  -0.018  -0.016
--------------------------------------------------
tot         -0.136  -1.062  -4.280  -5.478
 


--------------------------------------------------------------------------------------------------------



  FREE ENERGIE OF THE ION-ELECTRON SYSTEM (eV)
  ---------------------------------------------------
  free  energy   TOTEN  =     -3284.44234079 eV

  energy  without entropy=    -3284.44234079  energy(sigma->0) =    -3284.44234079
 


--------------------------------------------------------------------------------------------------------




--------------------------------------------------------------------------------------------------------


 stress matrix after NEB project (eV)
      0.00000      0.00000      0.00000
      0.00000      0.00000      0.00000
      0.00000      0.00000      0.00000
  FORCES: max atom, RMS     0.000000    0.000000
  FORCE total and by dimension    0.000000    0.000000
  Stress total and by dimension    0.000000    0.000000
 writing wavefunctions
     LOOP+:  cpu time  181.1039: real time  204.8604
    4ORBIT:  cpu time    0.0000: real time    0.0000
 


 total charge     
 
# of ion       s       p       d       tot
------------------------------------------
    1        1.619   3.220   0.000   4.840
    2        1.620   3.220   0.000   4.840
    3        1.559   3.484   0.000   5.043
    4        1.556   3.511   0.000   5.068
    5        1.556   3.504   0.000   5.060
    6        1.567   3.459   0.000   5.026
    7        1.556   3.504   0.000   5.060
    8        1.566   3.459   0.000   5.026
    9        1.556   3.488   0.000   5.045
   10        1.556   3.513   0.000   5.069
   11        1.556   3.504   0.000   5.060
   12        1.564   3.472   0.000   5.036
   13        1.558   3.489   0.000   5.047
   14        1.557   3.510   0.000   5.067
   15        1.558   3.480   0.000   5.038
   16        1.556   3.505   0.000   5.061
   17        1.556   3.504   0.000   5.061
   18        1.557   3.505   0.000   5.062
   19        1.562   3.477   0.000   5.039
   20        1.556   3.504   0.000   5.060
   21        1.562   3.481   0.000   5.043
   22        1.556   3.504   0.000   5.060
   23        1.558   3.506   0.000   5.063
   24        1.558   3.497   0.000   5.055
   25        1.570   3.435   0.000   5.005
   26        1.556   3.504   0.000   5.060
   27        1.560   3.490   0.000   5.051
   28        1.556   3.505   0.000   5.061
   29        1.556   3.504   0.000   5.060
   30        1.583   3.399   0.000   4.982
   31        1.556   3.504   0.000   5.060
   32        1.573   3.448   0.000   5.021
   33        1.560   3.510   0.000   5.071
   34        1.556   3.505   0.000   5.061
   35        1.558   3.510   0.000   5.068
   36        1.556   3.505   0.000   5.061
   37        1.556   3.504   0.000   5.060
   38        1.567   3.516   0.000   5.083
   39        1.560   3.506   0.000   5.065
   40        1.556   3.504   0.000   5.060
   41        1.557   3.508   0.000   5.065
   42        1.561   3.509   0.000   5.070
   43        1.574   3.430   0.000   5.005
   44        1.556   3.504   0.000   5.060
   45        1.557   3.506   0.000   5.063
   46        1.561   3.503   0.000   5.064
   47        1.574   3.436   0.000   5.010
   48        1.556   3.504   0.000   5.060
   49        1.559   3.495   0.000   5.053
   50        1.556   3.505   0.000   5.061
   51        1.556   3.504   0.000   5.060
   52        1.557   3.514   0.000   5.071
   53        1.557   3.509   0.000   5.065
   54        1.561   3.504   0.000   5.064
   55        1.560   3.506   0.000   5.066
   56        1.556   3.504   0.000   5.060
   57        1.556   3.509   0.000   5.065
   58        1.561   3.509   0.000   5.070
   59        1.556   3.504   0.000   5.060
   60        1.564   3.472   0.000   5.036
   61        1.565   3.465   0.000   5.030
   62        1.556   3.504   0.000   5.060
   63        1.557   3.505   0.000   5.062
   64        1.559   3.497   0.000   5.056
   65        1.556   3.509   0.000   5.065
   66        1.557   3.506   0.000   5.063
   67        0.398   0.551   7.140   8.088
   68        0.336   0.422   7.079   7.837
   69        0.335   0.421   7.079   7.835
   70        0.347   0.445   7.088   7.881
   71        0.334   0.420   7.078   7.832
   72        0.347   0.445   7.088   7.880
   73        0.335   0.419   7.072   7.826
   74        0.334   0.420   7.079   7.834
   75        0.353   0.464   7.108   7.925
   76        0.340   0.433   7.087   7.859
   77        0.335   0.421   7.079   7.836
   78        0.459   0.385   7.019   7.863
   79        0.336   0.422   7.080   7.837
   80        0.418   0.353   7.031   7.802
   81        0.351   0.460   7.104   7.916
   82        0.340   0.433   7.087   7.859
   83        0.418   0.651   7.196   8.265
   84        0.432   0.684   7.237   8.353
   85        0.400   0.538   7.138   8.076
   86        0.419   0.656   7.196   8.271
   87        0.417   0.617   7.144   8.178
   88        0.419   0.656   7.196   8.271
   89        0.418   0.655   7.196   8.269
   90        0.425   0.666   7.214   8.306
   91        0.357   0.453   7.007   7.818
   92        0.419   0.656   7.196   8.271
   93        0.417   0.650   7.196   8.263
   94        0.432   0.686   7.232   8.350
   95        0.427   0.680   7.223   8.330
   96        0.421   0.660   7.200   8.281
   97        0.419   0.656   7.197   8.272
   98        0.434   0.641   7.214   8.289
   99        0.419   0.656   7.197   8.272
  100        0.513   0.844   7.192   8.549
  101        0.422   0.661   7.211   8.294
  102        0.421   0.658   7.201   8.280
  103        0.427   0.678   7.224   8.329
  104        0.420   0.658   7.201   8.280
  105        0.436   0.654   7.197   8.287
  106        0.419   0.656   7.196   8.271
  107        0.419   0.655   7.197   8.272
  108        0.429   0.680   7.227   8.336
  109        0.419   0.656   7.197   8.272
  110        0.513   0.844   7.190   8.546
  111        0.397   0.606   7.155   8.157
  112        0.421   0.659   7.200   8.280
  113        0.419   0.656   7.197   8.272
  114        0.433   0.640   7.213   8.286
--------------------------------------------------
tot        122.351 258.050 343.477 723.878
 


 magnetization (x)
 
# of ion       s       p       d       tot
------------------------------------------
    1       -0.013  -0.861   0.000  -0.874
    2       -0.013  -0.865   0.000  -0.878
    3       -0.006  -0.021   0.000  -0.027
    4       -0.003  -0.025   0.000  -0.029
    5       -0.004  -0.028   0.000  -0.032
    6       -0.003   0.064   0.000   0.061
    7       -0.003  -0.028   0.000  -0.032
    8       -0.003   0.068   0.000   0.065
    9       -0.004  -0.030   0.000  -0.034
   10       -0.004  -0.032   0.000  -0.036
   11       -0.004  -0.029   0.000  -0.032
   12       -0.005  -0.013   0.000  -0.018
   13       -0.004  -0.022   0.000  -0.027
   14       -0.004  -0.024   0.000  -0.028
   15       -0.004  -0.008   0.000  -0.013
   16       -0.003  -0.029   0.000  -0.032
   17       -0.004  -0.031   0.000  -0.035
   18       -0.004  -0.031   0.000  -0.036
   19       -0.003   0.012   0.000   0.009
   20       -0.004  -0.029   0.000  -0.032
   21       -0.003  -0.004   0.000  -0.007
   22       -0.003  -0.029   0.000  -0.032
   23       -0.004  -0.025   0.000  -0.029
   24       -0.005  -0.021   0.000  -0.026
   25       -0.004   0.127   0.000   0.123
   26       -0.004  -0.029   0.000  -0.032
   27        0.004   0.020   0.000   0.024
   28        0.004   0.029   0.000   0.033
   29        0.004   0.029   0.000   0.032
   30       -0.001   0.030   0.000   0.029
   31        0.004   0.029   0.000   0.032
   32        0.000  -0.019   0.000  -0.019
   33        0.004   0.020   0.000   0.024
   34        0.004   0.029   0.000   0.033
   35       -0.002  -0.047   0.000  -0.049
   36        0.004   0.029   0.000   0.033
   37        0.003   0.029   0.000   0.032
   38       -0.000   0.065   0.000   0.064
   39        0.002   0.076   0.000   0.078
   40        0.004   0.028   0.000   0.032
   41        0.004   0.030   0.000   0.034
   42        0.004   0.027   0.000   0.031
   43       -0.001   0.065   0.000   0.064
   44        0.004   0.028   0.000   0.032
   45        0.004   0.029   0.000   0.033
   46        0.005   0.046   0.000   0.051
   47        0.001   0.027   0.000   0.028
   48        0.004   0.028   0.000   0.032
   49        0.004   0.018   0.000   0.021
   50        0.004   0.029   0.000   0.033
   51        0.003   0.028   0.000   0.031
   52        0.002   0.080   0.000   0.083
   53        0.004   0.031   0.000   0.035
   54        0.005   0.047   0.000   0.051
   55       -0.000   0.089   0.000   0.089
   56        0.004   0.028   0.000   0.032
   57        0.004   0.029   0.000   0.033
   58        0.004   0.026   0.000   0.031
   59       -0.003  -0.028   0.000  -0.032
   60       -0.005  -0.012   0.000  -0.017
   61       -0.004   0.026   0.000   0.022
   62       -0.003  -0.029   0.000  -0.032
   63       -0.003  -0.024   0.000  -0.028
   64       -0.005  -0.021   0.000  -0.026
   65       -0.004  -0.032   0.000  -0.036
   66       -0.004  -0.031   0.000  -0.036
   67       -0.018  -0.053  -2.394  -2.465
   68       -0.010  -0.045  -2.605  -2.660
   69       -0.010  -0.045  -2.606  -2.661
   70       -0.012  -0.039  -2.575  -2.626
   71       -0.010  -0.045  -2.609  -2.663
   72       -0.012  -0.039  -2.577  -2.627
   73       -0.013  -0.042  -2.594  -2.649
   74       -0.010  -0.045  -2.608  -2.662
   75        0.010   0.050   2.588   2.648
   76        0.010   0.046   2.606   2.662
   77        0.010   0.045   2.607   2.662
   78       -0.004   0.036   2.623   2.656
   79        0.010   0.045   2.606   2.661
   80       -0.002   0.038   2.627   2.664
   81        0.009   0.047   2.591   2.647
   82        0.010   0.046   2.606   2.662
   83        0.000  -0.000   0.001   0.001
   84        0.000   0.001   0.005   0.006
   85        0.002  -0.001  -0.110  -0.108
   86        0.000   0.000   0.001   0.001
   87       -0.000   0.002  -0.019  -0.017
   88        0.000   0.000   0.001   0.001
   89       -0.000  -0.000  -0.005  -0.006
   90       -0.001  -0.001   0.010   0.008
   91       -0.024  -0.015  -2.267  -2.306
   92        0.000   0.000   0.001   0.001
   93        0.000  -0.000  -0.003  -0.004
   94       -0.000  -0.000   0.003   0.002
   95       -0.002  -0.002  -0.013  -0.016
   96       -0.000   0.000  -0.000  -0.000
   97        0.000   0.000   0.001   0.001
   98       -0.000   0.002  -0.019  -0.016
   99        0.000   0.000   0.001   0.002
  100       -0.004   0.004  -1.078  -1.078
  101        0.001   0.001   0.003   0.005
  102        0.000   0.000   0.003   0.003
  103        0.000   0.001   0.008   0.009
  104        0.000   0.000   0.003   0.003
  105       -0.000   0.003   0.007   0.009
  106        0.000   0.000   0.001   0.001
  107        0.000  -0.000  -0.003  -0.003
  108       -0.002  -0.001  -0.011  -0.014
  109       -0.000   0.000   0.001   0.001
  110       -0.004   0.004  -1.078  -1.078
  111       -0.001  -0.000   0.012   0.010
  112       -0.000   0.000  -0.000  -0.000
  113        0.000   0.000   0.001   0.001
  114       -0.000   0.003  -0.018  -0.016
--------------------------------------------------
tot         -0.136  -1.062  -4.280  -5.478
 

 total amount of memory used by VASP MPI-rank0   404800. kBytes
=======================================================================

   base      :      30000. kBytes
   nonlr-proj:      84541. kBytes
   fftplans  :      26737. kBytes
   grid      :     124715. kBytes
   one-center:       3545. kBytes
   HF        :        129. kBytes
   wavefun   :     135133. kBytes
 
  
  
 General timing and accounting informations for this job:
 ========================================================
  
                  Total CPU time used (sec):      322.401
                            User time (sec):      289.553
                          System time (sec):       32.848
                         Elapsed time (sec):      355.429
  
                   Maximum memory used (kb):      536504.
                   Average memory used (kb):           0.
  
                          Minor page faults:       801373
                          Major page faults:            0
                 Voluntary context switches:         9658
